n -t * -s 0  -x 100 -y 40 -Z 0 -z 24.0  -v circle -c green
n -t * -s 1  -x 100 -y 80 -Z 0 -z 24.0  -v circle -c green
n -t * -s 2  -x 100 -y 120 -Z 0 -z 24.0  -v circle -c green
n -t * -s 3  -x 100 -y 160 -Z 0 -z 24.0  -v circle -c green
n -t * -s 4  -x 100 -y 200 -Z 0 -z 24.0  -v circle -c green
n -t * -s 5  -x 100 -y 240 -Z 0 -z 24.0  -v circle -c green
n -t * -s 6  -x 100 -y 280 -Z 0 -z 24.0  -v circle -c green
n -t * -s 7  -x 100 -y 320 -Z 0 -z 24.0  -v circle -c green
n -t * -s 8  -x 100 -y 360 -Z 0 -z 24.0  -v circle -c green
n -t * -s 9  -x 100 -y 400 -Z 0 -z 24.0  -v circle -c green
n -t * -s 10  -x 200 -y 40 -Z 0 -z 24.0  -v circle -c green
n -t * -s 11  -x 200 -y 80 -Z 0 -z 24.0  -v circle -c green
n -t * -s 12  -x 200 -y 120 -Z 0 -z 24.0  -v circle -c green
n -t * -s 13  -x 200 -y 160 -Z 0 -z 24.0  -v circle -c green
n -t * -s 14  -x 200 -y 200 -Z 0 -z 24.0  -v circle -c green
n -t * -s 15  -x 200 -y 240 -Z 0 -z 24.0  -v circle -c green
n -t * -s 16  -x 200 -y 280 -Z 0 -z 24.0  -v circle -c green
n -t * -s 17  -x 200 -y 320 -Z 0 -z 24.0  -v circle -c green
n -t * -s 18  -x 200 -y 360 -Z 0 -z 24.0  -v circle -c green
n -t * -s 19  -x 200 -y 400 -Z 0 -z 24.0  -v circle -c green
n -t * -s 20  -x 300 -y 40 -Z 0 -z 24.0  -v circle -c green
n -t * -s 21  -x 300 -y 80 -Z 0 -z 24.0  -v circle -c green
n -t * -s 22  -x 300 -y 120 -Z 0 -z 24.0  -v circle -c green
n -t * -s 23  -x 300 -y 160 -Z 0 -z 24.0  -v circle -c green
n -t * -s 24  -x 300 -y 200 -Z 0 -z 24.0  -v circle -c green
n -t * -s 25  -x 300 -y 240 -Z 0 -z 24.0  -v circle -c green
n -t * -s 26  -x 300 -y 280 -Z 0 -z 24.0  -v circle -c green
n -t * -s 27  -x 300 -y 320 -Z 0 -z 24.0  -v circle -c green
n -t * -s 28  -x 300 -y 360 -Z 0 -z 24.0  -v circle -c green
n -t * -s 29  -x 300 -y 400 -Z 0 -z 24.0  -v circle -c green
n -t * -s 30  -x 400 -y 40 -Z 0 -z 24.0  -v circle -c green
n -t * -s 31  -x 400 -y 80 -Z 0 -z 24.0  -v circle -c green
n -t * -s 32  -x 400 -y 120 -Z 0 -z 24.0  -v circle -c green
n -t * -s 33  -x 400 -y 160 -Z 0 -z 24.0  -v circle -c green
n -t * -s 34  -x 400 -y 200 -Z 0 -z 24.0  -v circle -c green
n -t * -s 35  -x 400 -y 240 -Z 0 -z 24.0  -v circle -c green
n -t * -s 36  -x 400 -y 280 -Z 0 -z 24.0  -v circle -c green
n -t * -s 37  -x 400 -y 320 -Z 0 -z 24.0  -v circle -c green
n -t * -s 38  -x 400 -y 360 -Z 0 -z 24.0  -v circle -c green
n -t * -s 39  -x 400 -y 400 -Z 0 -z 24.0  -v circle -c green
V -t * -v 1.0a5 -a 0
W -t * -x 500 -y 500
A -t * -n 1 -p 0 -o 0x7fffffff -c 30 -a 1
A -t * -h 1 -m 1073741823 -s 0
c -t * -i 17 -n red
c -t * -i 0 -n blue
c -t * -i 35 -n red
c -t * -i 1 -n blue
c -t * -i 36 -n red
c -t * -i 20 -n blue
c -t * -i 2 -n blue
c -t * -i 38 -n red
c -t * -i 21 -n blue
c -t * -i 22 -n red
c -t * -i 23 -n blue
c -t * -i 5 -n red
c -t * -i 6 -n red
c -t * -i 24 -n blue
c -t * -i 7 -n red
c -t * -i 8 -n blue
c -t * -i 9 -n red
c -t * -i 27 -n blue
c -t * -i 11 -n red
c -t * -i 12 -n blue
c -t * -i 29 -n blue
c -t * -i 13 -n blue
c -t * -i 31 -n blue
c -t * -i 32 -n red
c -t * -i 14 -n red
c -t * -i 16 -n red
n -t 0 -s 7 -S COLOR -c red -o red -i red -I red
n -t 0 -s 20 -S COLOR -c blue -o blue -i blue -I blue
n -t 0 -s 22 -S COLOR -c brown -o red -i brown -I red
n -t 0 -s 1 -S COLOR -c blue -o blue -i blue -I blue
n -t 0 -s 11 -S COLOR -c brown -o red -i brown -I red
n -t 0 -s 8 -S COLOR -c blue -o blue -i blue -I blue
n -t 0 -s 36 -S COLOR -c brown -o red -i brown -I red
n -t 0 -s 0 -S COLOR -c blue -o blue -i blue -I blue
n -t 0 -s 16 -S COLOR -c brown -o red -i brown -I red
n -t 0 -s 2 -S COLOR -c blue -o blue -i blue -I blue
n -t 0 -s 24 -S COLOR -c brown -o blue -i brown -I blue
n -t 0 -s 20 -S COLOR -c blue -o blue -i blue -I blue
n -t 0 -s 35 -S COLOR -c brown -o red -i brown -I red
n -t 0 -s 21 -S COLOR -c blue -o blue -i blue -I blue
n -t 0 -s 14 -S COLOR -c brown -o red -i brown -I red
n -t 0 -s 0 -S COLOR -c blue -o blue -i blue -I blue
n -t 0 -s 5 -S COLOR -c brown -o red -i brown -I red
n -t 0 -s 24 -S COLOR -c blue -o brown -i blue -I brown
n -t 0 -s 11 -S COLOR -c brown -o brown -i brown -I brown
n -t 0 -s 27 -S COLOR -c blue -o blue -i blue -I blue
n -t 0 -s 29 -S COLOR -c brown -o blue -i brown -I blue
n -t 0 -s 12 -S COLOR -c blue -o blue -i blue -I blue
n -t 0 -s 29 -S COLOR -c brown -o brown -i brown -I brown
n -t 0 -s 22 -S COLOR -c blue -o brown -i blue -I brown
n -t 0 -s 38 -S COLOR -c brown -o red -i brown -I red
n -t 0 -s 31 -S COLOR -c blue -o blue -i blue -I blue
n -t 0 -s 32 -S COLOR -c brown -o red -i brown -I red
n -t 0 -s 13 -S COLOR -c blue -o blue -i blue -I blue
n -t 0 -s 9 -S COLOR -c brown -o red -i brown -I red
n -t 0 -s 23 -S COLOR -c blue -o blue -i blue -I blue
n -t 0 -s 17 -S COLOR -c brown -o red -i brown -I red
n -t 0 -s 29 -S COLOR -c blue -o brown -i blue -I brown
n -t 0 -s 22 -S COLOR -c brown -o blue -i brown -I blue
n -t 0 -s 23 -S COLOR -c blue -o blue -i blue -I blue
n -t 0 -s 6 -S COLOR -c brown -o red -i brown -I red
n -t 0 -s 24 -S COLOR -c blue -o blue -i blue -I blue
n -t 0 -s 7 -S COLOR -c brown -o red -i brown -I red
+ -t 0.014640917 -s 0 -d -1 -p message -e 32 -c 2 -a 0 -i 0 -k RTR 
- -t 0.014640917 -s 0 -d -1 -p message -e 32 -c 2 -a 0 -i 0 -k RTR
h -t 0.014640917 -s 0 -d -1 -p message -e 32 -c 2 -a 0 -i 0 -k RTR
+ -t 0.017225917 -s 0 -d -1 -p message -e 39 -c 2 -a 0 -i 0 -k MAC 
- -t 0.017225917 -s 0 -d -1 -p message -e 39 -c 2 -a 0 -i 0 -k MAC
h -t 0.017225917 -s 0 -d -1 -p message -e 39 -c 2 -a 0 -i 0 -k MAC
r -t 0.019306050 -s 1 -d -1 -p message -e 32 -c 2 -a 0 -i 0 -k MAC
r -t 0.019306183 -s 2 -d -1 -p message -e 32 -c 2 -a 0 -i 0 -k MAC
r -t 0.019306250 -s 10 -d -1 -p message -e 32 -c 2 -a 0 -i 0 -k MAC
r -t 0.019306276 -s 11 -d -1 -p message -e 32 -c 2 -a 0 -i 0 -k MAC
r -t 0.019306317 -s 3 -d -1 -p message -e 32 -c 2 -a 0 -i 0 -k MAC
r -t 0.019306344 -s 12 -d -1 -p message -e 32 -c 2 -a 0 -i 0 -k MAC
r -t 0.019306437 -s 13 -d -1 -p message -e 32 -c 2 -a 0 -i 0 -k MAC
r -t 0.019306450 -s 4 -d -1 -p message -e 32 -c 2 -a 0 -i 0 -k MAC
r -t 0.019306546 -s 14 -d -1 -p message -e 32 -c 2 -a 0 -i 0 -k MAC
r -t 0.019306583 -s 5 -d -1 -p message -e 32 -c 2 -a 0 -i 0 -k MAC
r -t 0.019306583 -s 20 -d -1 -p message -e 32 -c 2 -a 0 -i 0 -k MAC
r -t 0.019306597 -s 21 -d -1 -p message -e 32 -c 2 -a 0 -i 0 -k MAC
r -t 0.019306635 -s 22 -d -1 -p message -e 32 -c 2 -a 0 -i 0 -k MAC
r -t 0.019306662 -s 15 -d -1 -p message -e 32 -c 2 -a 0 -i 0 -k MAC
r -t 0.019306694 -s 23 -d -1 -p message -e 32 -c 2 -a 0 -i 0 -k MAC
r -t 0.019306717 -s 6 -d -1 -p message -e 32 -c 2 -a 0 -i 0 -k MAC
r -t 0.019306771 -s 24 -d -1 -p message -e 32 -c 2 -a 0 -i 0 -k MAC
r -t 0.019306783 -s 16 -d -1 -p message -e 32 -c 2 -a 0 -i 0 -k MAC
r -t 0.019306850 -s 7 -d -1 -p message -e 32 -c 2 -a 0 -i 0 -k MAC
r -t 0.019331050 -s 1 -d -1 -p message -e 32 -c 2 -a 0 -i 0 -k RTR
r -t 0.019331183 -s 2 -d -1 -p message -e 32 -c 2 -a 0 -i 0 -k RTR
r -t 0.019331250 -s 10 -d -1 -p message -e 32 -c 2 -a 0 -i 0 -k RTR
r -t 0.019331276 -s 11 -d -1 -p message -e 32 -c 2 -a 0 -i 0 -k RTR
r -t 0.019331317 -s 3 -d -1 -p message -e 32 -c 2 -a 0 -i 0 -k RTR
r -t 0.019331344 -s 12 -d -1 -p message -e 32 -c 2 -a 0 -i 0 -k RTR
r -t 0.019331437 -s 13 -d -1 -p message -e 32 -c 2 -a 0 -i 0 -k RTR
r -t 0.019331450 -s 4 -d -1 -p message -e 32 -c 2 -a 0 -i 0 -k RTR
r -t 0.019331546 -s 14 -d -1 -p message -e 32 -c 2 -a 0 -i 0 -k RTR
r -t 0.019331583 -s 5 -d -1 -p message -e 32 -c 2 -a 0 -i 0 -k RTR
r -t 0.019331583 -s 20 -d -1 -p message -e 32 -c 2 -a 0 -i 0 -k RTR
r -t 0.019331597 -s 21 -d -1 -p message -e 32 -c 2 -a 0 -i 0 -k RTR
r -t 0.019331635 -s 22 -d -1 -p message -e 32 -c 2 -a 0 -i 0 -k RTR
r -t 0.019331662 -s 15 -d -1 -p message -e 32 -c 2 -a 0 -i 0 -k RTR
r -t 0.019331694 -s 23 -d -1 -p message -e 32 -c 2 -a 0 -i 0 -k RTR
r -t 0.019331717 -s 6 -d -1 -p message -e 32 -c 2 -a 0 -i 0 -k RTR
r -t 0.019331771 -s 24 -d -1 -p message -e 32 -c 2 -a 0 -i 0 -k RTR
r -t 0.019331783 -s 16 -d -1 -p message -e 32 -c 2 -a 0 -i 0 -k RTR
r -t 0.019331850 -s 7 -d -1 -p message -e 32 -c 2 -a 0 -i 0 -k RTR
+ -t 0.034284123 -s 13 -d -1 -p message -e 32 -c 2 -a 0 -i 1 -k RTR 
- -t 0.034284123 -s 13 -d -1 -p message -e 32 -c 2 -a 0 -i 1 -k RTR
h -t 0.034284123 -s 13 -d -1 -p message -e 32 -c 2 -a 0 -i 1 -k RTR
+ -t 0.035909123 -s 13 -d -1 -p message -e 39 -c 2 -a 0 -i 1 -k MAC 
- -t 0.035909123 -s 13 -d -1 -p message -e 39 -c 2 -a 0 -i 1 -k MAC
h -t 0.035909123 -s 13 -d -1 -p message -e 39 -c 2 -a 0 -i 1 -k MAC
r -t 0.037989256 -s 12 -d -1 -p message -e 32 -c 2 -a 0 -i 1 -k MAC
r -t 0.037989256 -s 14 -d -1 -p message -e 32 -c 2 -a 0 -i 1 -k MAC
r -t 0.037989390 -s 11 -d -1 -p message -e 32 -c 2 -a 0 -i 1 -k MAC
r -t 0.037989390 -s 15 -d -1 -p message -e 32 -c 2 -a 0 -i 1 -k MAC
r -t 0.037989456 -s 3 -d -1 -p message -e 32 -c 2 -a 0 -i 1 -k MAC
r -t 0.037989456 -s 23 -d -1 -p message -e 32 -c 2 -a 0 -i 1 -k MAC
r -t 0.037989482 -s 4 -d -1 -p message -e 32 -c 2 -a 0 -i 1 -k MAC
r -t 0.037989482 -s 2 -d -1 -p message -e 32 -c 2 -a 0 -i 1 -k MAC
r -t 0.037989482 -s 22 -d -1 -p message -e 32 -c 2 -a 0 -i 1 -k MAC
r -t 0.037989482 -s 24 -d -1 -p message -e 32 -c 2 -a 0 -i 1 -k MAC
r -t 0.037989523 -s 10 -d -1 -p message -e 32 -c 2 -a 0 -i 1 -k MAC
r -t 0.037989523 -s 16 -d -1 -p message -e 32 -c 2 -a 0 -i 1 -k MAC
r -t 0.037989550 -s 5 -d -1 -p message -e 32 -c 2 -a 0 -i 1 -k MAC
r -t 0.037989550 -s 1 -d -1 -p message -e 32 -c 2 -a 0 -i 1 -k MAC
r -t 0.037989550 -s 21 -d -1 -p message -e 32 -c 2 -a 0 -i 1 -k MAC
r -t 0.037989550 -s 25 -d -1 -p message -e 32 -c 2 -a 0 -i 1 -k MAC
r -t 0.037989644 -s 6 -d -1 -p message -e 32 -c 2 -a 0 -i 1 -k MAC
r -t 0.037989644 -s 0 -d -1 -p message -e 32 -c 2 -a 0 -i 1 -k MAC
r -t 0.037989644 -s 20 -d -1 -p message -e 32 -c 2 -a 0 -i 1 -k MAC
r -t 0.037989644 -s 26 -d -1 -p message -e 32 -c 2 -a 0 -i 1 -k MAC
r -t 0.037989656 -s 17 -d -1 -p message -e 32 -c 2 -a 0 -i 1 -k MAC
r -t 0.037989752 -s 7 -d -1 -p message -e 32 -c 2 -a 0 -i 1 -k MAC
r -t 0.037989752 -s 27 -d -1 -p message -e 32 -c 2 -a 0 -i 1 -k MAC
r -t 0.037989790 -s 18 -d -1 -p message -e 32 -c 2 -a 0 -i 1 -k MAC
r -t 0.037989790 -s 33 -d -1 -p message -e 32 -c 2 -a 0 -i 1 -k MAC
r -t 0.037989803 -s 32 -d -1 -p message -e 32 -c 2 -a 0 -i 1 -k MAC
r -t 0.037989803 -s 34 -d -1 -p message -e 32 -c 2 -a 0 -i 1 -k MAC
r -t 0.037989841 -s 31 -d -1 -p message -e 32 -c 2 -a 0 -i 1 -k MAC
r -t 0.037989841 -s 35 -d -1 -p message -e 32 -c 2 -a 0 -i 1 -k MAC
r -t 0.037989868 -s 8 -d -1 -p message -e 32 -c 2 -a 0 -i 1 -k MAC
r -t 0.037989868 -s 28 -d -1 -p message -e 32 -c 2 -a 0 -i 1 -k MAC
r -t 0.037989900 -s 30 -d -1 -p message -e 32 -c 2 -a 0 -i 1 -k MAC
r -t 0.037989900 -s 36 -d -1 -p message -e 32 -c 2 -a 0 -i 1 -k MAC
r -t 0.037989923 -s 19 -d -1 -p message -e 32 -c 2 -a 0 -i 1 -k MAC
r -t 0.037989977 -s 37 -d -1 -p message -e 32 -c 2 -a 0 -i 1 -k MAC
r -t 0.037989990 -s 9 -d -1 -p message -e 32 -c 2 -a 0 -i 1 -k MAC
r -t 0.037989990 -s 29 -d -1 -p message -e 32 -c 2 -a 0 -i 1 -k MAC
r -t 0.038014256 -s 12 -d -1 -p message -e 32 -c 2 -a 0 -i 1 -k RTR
r -t 0.038014256 -s 14 -d -1 -p message -e 32 -c 2 -a 0 -i 1 -k RTR
r -t 0.038014390 -s 11 -d -1 -p message -e 32 -c 2 -a 0 -i 1 -k RTR
r -t 0.038014390 -s 15 -d -1 -p message -e 32 -c 2 -a 0 -i 1 -k RTR
r -t 0.038014456 -s 3 -d -1 -p message -e 32 -c 2 -a 0 -i 1 -k RTR
r -t 0.038014456 -s 23 -d -1 -p message -e 32 -c 2 -a 0 -i 1 -k RTR
r -t 0.038014482 -s 4 -d -1 -p message -e 32 -c 2 -a 0 -i 1 -k RTR
r -t 0.038014482 -s 2 -d -1 -p message -e 32 -c 2 -a 0 -i 1 -k RTR
r -t 0.038014482 -s 22 -d -1 -p message -e 32 -c 2 -a 0 -i 1 -k RTR
r -t 0.038014482 -s 24 -d -1 -p message -e 32 -c 2 -a 0 -i 1 -k RTR
r -t 0.038014523 -s 10 -d -1 -p message -e 32 -c 2 -a 0 -i 1 -k RTR
r -t 0.038014523 -s 16 -d -1 -p message -e 32 -c 2 -a 0 -i 1 -k RTR
r -t 0.038014550 -s 5 -d -1 -p message -e 32 -c 2 -a 0 -i 1 -k RTR
r -t 0.038014550 -s 1 -d -1 -p message -e 32 -c 2 -a 0 -i 1 -k RTR
r -t 0.038014550 -s 21 -d -1 -p message -e 32 -c 2 -a 0 -i 1 -k RTR
r -t 0.038014550 -s 25 -d -1 -p message -e 32 -c 2 -a 0 -i 1 -k RTR
r -t 0.038014644 -s 6 -d -1 -p message -e 32 -c 2 -a 0 -i 1 -k RTR
r -t 0.038014644 -s 0 -d -1 -p message -e 32 -c 2 -a 0 -i 1 -k RTR
r -t 0.038014644 -s 20 -d -1 -p message -e 32 -c 2 -a 0 -i 1 -k RTR
r -t 0.038014644 -s 26 -d -1 -p message -e 32 -c 2 -a 0 -i 1 -k RTR
r -t 0.038014656 -s 17 -d -1 -p message -e 32 -c 2 -a 0 -i 1 -k RTR
r -t 0.038014752 -s 7 -d -1 -p message -e 32 -c 2 -a 0 -i 1 -k RTR
r -t 0.038014752 -s 27 -d -1 -p message -e 32 -c 2 -a 0 -i 1 -k RTR
r -t 0.038014790 -s 18 -d -1 -p message -e 32 -c 2 -a 0 -i 1 -k RTR
r -t 0.038014790 -s 33 -d -1 -p message -e 32 -c 2 -a 0 -i 1 -k RTR
r -t 0.038014803 -s 32 -d -1 -p message -e 32 -c 2 -a 0 -i 1 -k RTR
r -t 0.038014803 -s 34 -d -1 -p message -e 32 -c 2 -a 0 -i 1 -k RTR
r -t 0.038014841 -s 31 -d -1 -p message -e 32 -c 2 -a 0 -i 1 -k RTR
r -t 0.038014841 -s 35 -d -1 -p message -e 32 -c 2 -a 0 -i 1 -k RTR
r -t 0.038014868 -s 8 -d -1 -p message -e 32 -c 2 -a 0 -i 1 -k RTR
r -t 0.038014868 -s 28 -d -1 -p message -e 32 -c 2 -a 0 -i 1 -k RTR
r -t 0.038014900 -s 30 -d -1 -p message -e 32 -c 2 -a 0 -i 1 -k RTR
r -t 0.038014900 -s 36 -d -1 -p message -e 32 -c 2 -a 0 -i 1 -k RTR
r -t 0.038014923 -s 19 -d -1 -p message -e 32 -c 2 -a 0 -i 1 -k RTR
r -t 0.038014977 -s 37 -d -1 -p message -e 32 -c 2 -a 0 -i 1 -k RTR
r -t 0.038014990 -s 9 -d -1 -p message -e 32 -c 2 -a 0 -i 1 -k RTR
r -t 0.038014990 -s 29 -d -1 -p message -e 32 -c 2 -a 0 -i 1 -k RTR
+ -t 0.068482594 -s 6 -d -1 -p message -e 32 -c 2 -a 0 -i 2 -k RTR 
- -t 0.068482594 -s 6 -d -1 -p message -e 32 -c 2 -a 0 -i 2 -k RTR
h -t 0.068482594 -s 6 -d -1 -p message -e 32 -c 2 -a 0 -i 2 -k RTR
+ -t 0.070427594 -s 6 -d -1 -p message -e 39 -c 2 -a 0 -i 2 -k MAC 
- -t 0.070427594 -s 6 -d -1 -p message -e 39 -c 2 -a 0 -i 2 -k MAC
h -t 0.070427594 -s 6 -d -1 -p message -e 39 -c 2 -a 0 -i 2 -k MAC
r -t 0.072507727 -s 5 -d -1 -p message -e 32 -c 2 -a 0 -i 2 -k MAC
r -t 0.072507727 -s 7 -d -1 -p message -e 32 -c 2 -a 0 -i 2 -k MAC
r -t 0.072507861 -s 4 -d -1 -p message -e 32 -c 2 -a 0 -i 2 -k MAC
r -t 0.072507861 -s 8 -d -1 -p message -e 32 -c 2 -a 0 -i 2 -k MAC
r -t 0.072507927 -s 16 -d -1 -p message -e 32 -c 2 -a 0 -i 2 -k MAC
r -t 0.072507953 -s 15 -d -1 -p message -e 32 -c 2 -a 0 -i 2 -k MAC
r -t 0.072507953 -s 17 -d -1 -p message -e 32 -c 2 -a 0 -i 2 -k MAC
r -t 0.072507994 -s 3 -d -1 -p message -e 32 -c 2 -a 0 -i 2 -k MAC
r -t 0.072507994 -s 9 -d -1 -p message -e 32 -c 2 -a 0 -i 2 -k MAC
r -t 0.072508021 -s 14 -d -1 -p message -e 32 -c 2 -a 0 -i 2 -k MAC
r -t 0.072508021 -s 18 -d -1 -p message -e 32 -c 2 -a 0 -i 2 -k MAC
r -t 0.072508115 -s 13 -d -1 -p message -e 32 -c 2 -a 0 -i 2 -k MAC
r -t 0.072508115 -s 19 -d -1 -p message -e 32 -c 2 -a 0 -i 2 -k MAC
r -t 0.072508127 -s 2 -d -1 -p message -e 32 -c 2 -a 0 -i 2 -k MAC
r -t 0.072508223 -s 12 -d -1 -p message -e 32 -c 2 -a 0 -i 2 -k MAC
r -t 0.072508261 -s 1 -d -1 -p message -e 32 -c 2 -a 0 -i 2 -k MAC
r -t 0.072508261 -s 26 -d -1 -p message -e 32 -c 2 -a 0 -i 2 -k MAC
r -t 0.072508274 -s 25 -d -1 -p message -e 32 -c 2 -a 0 -i 2 -k MAC
r -t 0.072508274 -s 27 -d -1 -p message -e 32 -c 2 -a 0 -i 2 -k MAC
r -t 0.072508312 -s 24 -d -1 -p message -e 32 -c 2 -a 0 -i 2 -k MAC
r -t 0.072508312 -s 28 -d -1 -p message -e 32 -c 2 -a 0 -i 2 -k MAC
r -t 0.072508339 -s 11 -d -1 -p message -e 32 -c 2 -a 0 -i 2 -k MAC
r -t 0.072508371 -s 23 -d -1 -p message -e 32 -c 2 -a 0 -i 2 -k MAC
r -t 0.072508371 -s 29 -d -1 -p message -e 32 -c 2 -a 0 -i 2 -k MAC
r -t 0.072508394 -s 0 -d -1 -p message -e 32 -c 2 -a 0 -i 2 -k MAC
r -t 0.072508448 -s 22 -d -1 -p message -e 32 -c 2 -a 0 -i 2 -k MAC
r -t 0.072508461 -s 10 -d -1 -p message -e 32 -c 2 -a 0 -i 2 -k MAC
r -t 0.072532727 -s 5 -d -1 -p message -e 32 -c 2 -a 0 -i 2 -k RTR
r -t 0.072532727 -s 7 -d -1 -p message -e 32 -c 2 -a 0 -i 2 -k RTR
r -t 0.072532861 -s 4 -d -1 -p message -e 32 -c 2 -a 0 -i 2 -k RTR
r -t 0.072532861 -s 8 -d -1 -p message -e 32 -c 2 -a 0 -i 2 -k RTR
r -t 0.072532927 -s 16 -d -1 -p message -e 32 -c 2 -a 0 -i 2 -k RTR
r -t 0.072532953 -s 15 -d -1 -p message -e 32 -c 2 -a 0 -i 2 -k RTR
r -t 0.072532953 -s 17 -d -1 -p message -e 32 -c 2 -a 0 -i 2 -k RTR
r -t 0.072532994 -s 3 -d -1 -p message -e 32 -c 2 -a 0 -i 2 -k RTR
r -t 0.072532994 -s 9 -d -1 -p message -e 32 -c 2 -a 0 -i 2 -k RTR
r -t 0.072533021 -s 14 -d -1 -p message -e 32 -c 2 -a 0 -i 2 -k RTR
r -t 0.072533021 -s 18 -d -1 -p message -e 32 -c 2 -a 0 -i 2 -k RTR
r -t 0.072533115 -s 13 -d -1 -p message -e 32 -c 2 -a 0 -i 2 -k RTR
r -t 0.072533115 -s 19 -d -1 -p message -e 32 -c 2 -a 0 -i 2 -k RTR
r -t 0.072533127 -s 2 -d -1 -p message -e 32 -c 2 -a 0 -i 2 -k RTR
r -t 0.072533223 -s 12 -d -1 -p message -e 32 -c 2 -a 0 -i 2 -k RTR
r -t 0.072533261 -s 1 -d -1 -p message -e 32 -c 2 -a 0 -i 2 -k RTR
r -t 0.072533261 -s 26 -d -1 -p message -e 32 -c 2 -a 0 -i 2 -k RTR
r -t 0.072533274 -s 25 -d -1 -p message -e 32 -c 2 -a 0 -i 2 -k RTR
r -t 0.072533274 -s 27 -d -1 -p message -e 32 -c 2 -a 0 -i 2 -k RTR
r -t 0.072533312 -s 24 -d -1 -p message -e 32 -c 2 -a 0 -i 2 -k RTR
r -t 0.072533312 -s 28 -d -1 -p message -e 32 -c 2 -a 0 -i 2 -k RTR
r -t 0.072533339 -s 11 -d -1 -p message -e 32 -c 2 -a 0 -i 2 -k RTR
r -t 0.072533371 -s 23 -d -1 -p message -e 32 -c 2 -a 0 -i 2 -k RTR
r -t 0.072533371 -s 29 -d -1 -p message -e 32 -c 2 -a 0 -i 2 -k RTR
r -t 0.072533394 -s 0 -d -1 -p message -e 32 -c 2 -a 0 -i 2 -k RTR
r -t 0.072533448 -s 22 -d -1 -p message -e 32 -c 2 -a 0 -i 2 -k RTR
r -t 0.072533461 -s 10 -d -1 -p message -e 32 -c 2 -a 0 -i 2 -k RTR
+ -t 0.088064151 -s 33 -d -1 -p message -e 32 -c 2 -a 0 -i 3 -k RTR 
- -t 0.088064151 -s 33 -d -1 -p message -e 32 -c 2 -a 0 -i 3 -k RTR
h -t 0.088064151 -s 33 -d -1 -p message -e 32 -c 2 -a 0 -i 3 -k RTR
+ -t 0.090329151 -s 33 -d -1 -p message -e 39 -c 2 -a 0 -i 3 -k MAC 
- -t 0.090329151 -s 33 -d -1 -p message -e 39 -c 2 -a 0 -i 3 -k MAC
h -t 0.090329151 -s 33 -d -1 -p message -e 39 -c 2 -a 0 -i 3 -k MAC
r -t 0.092409284 -s 32 -d -1 -p message -e 32 -c 2 -a 0 -i 3 -k MAC
r -t 0.092409284 -s 34 -d -1 -p message -e 32 -c 2 -a 0 -i 3 -k MAC
r -t 0.092409417 -s 31 -d -1 -p message -e 32 -c 2 -a 0 -i 3 -k MAC
r -t 0.092409417 -s 35 -d -1 -p message -e 32 -c 2 -a 0 -i 3 -k MAC
r -t 0.092409484 -s 23 -d -1 -p message -e 32 -c 2 -a 0 -i 3 -k MAC
r -t 0.092409510 -s 24 -d -1 -p message -e 32 -c 2 -a 0 -i 3 -k MAC
r -t 0.092409510 -s 22 -d -1 -p message -e 32 -c 2 -a 0 -i 3 -k MAC
r -t 0.092409551 -s 30 -d -1 -p message -e 32 -c 2 -a 0 -i 3 -k MAC
r -t 0.092409551 -s 36 -d -1 -p message -e 32 -c 2 -a 0 -i 3 -k MAC
r -t 0.092409578 -s 25 -d -1 -p message -e 32 -c 2 -a 0 -i 3 -k MAC
r -t 0.092409578 -s 21 -d -1 -p message -e 32 -c 2 -a 0 -i 3 -k MAC
r -t 0.092409671 -s 26 -d -1 -p message -e 32 -c 2 -a 0 -i 3 -k MAC
r -t 0.092409671 -s 20 -d -1 -p message -e 32 -c 2 -a 0 -i 3 -k MAC
r -t 0.092409684 -s 37 -d -1 -p message -e 32 -c 2 -a 0 -i 3 -k MAC
r -t 0.092409780 -s 27 -d -1 -p message -e 32 -c 2 -a 0 -i 3 -k MAC
r -t 0.092409817 -s 13 -d -1 -p message -e 32 -c 2 -a 0 -i 3 -k MAC
r -t 0.092409817 -s 38 -d -1 -p message -e 32 -c 2 -a 0 -i 3 -k MAC
r -t 0.092409831 -s 14 -d -1 -p message -e 32 -c 2 -a 0 -i 3 -k MAC
r -t 0.092409831 -s 12 -d -1 -p message -e 32 -c 2 -a 0 -i 3 -k MAC
r -t 0.092409869 -s 15 -d -1 -p message -e 32 -c 2 -a 0 -i 3 -k MAC
r -t 0.092409869 -s 11 -d -1 -p message -e 32 -c 2 -a 0 -i 3 -k MAC
r -t 0.092409896 -s 28 -d -1 -p message -e 32 -c 2 -a 0 -i 3 -k MAC
r -t 0.092409928 -s 16 -d -1 -p message -e 32 -c 2 -a 0 -i 3 -k MAC
r -t 0.092409928 -s 10 -d -1 -p message -e 32 -c 2 -a 0 -i 3 -k MAC
r -t 0.092409951 -s 39 -d -1 -p message -e 32 -c 2 -a 0 -i 3 -k MAC
r -t 0.092410004 -s 17 -d -1 -p message -e 32 -c 2 -a 0 -i 3 -k MAC
r -t 0.092410017 -s 29 -d -1 -p message -e 32 -c 2 -a 0 -i 3 -k MAC
r -t 0.092434284 -s 32 -d -1 -p message -e 32 -c 2 -a 0 -i 3 -k RTR
r -t 0.092434284 -s 34 -d -1 -p message -e 32 -c 2 -a 0 -i 3 -k RTR
r -t 0.092434417 -s 31 -d -1 -p message -e 32 -c 2 -a 0 -i 3 -k RTR
r -t 0.092434417 -s 35 -d -1 -p message -e 32 -c 2 -a 0 -i 3 -k RTR
r -t 0.092434484 -s 23 -d -1 -p message -e 32 -c 2 -a 0 -i 3 -k RTR
r -t 0.092434510 -s 24 -d -1 -p message -e 32 -c 2 -a 0 -i 3 -k RTR
r -t 0.092434510 -s 22 -d -1 -p message -e 32 -c 2 -a 0 -i 3 -k RTR
r -t 0.092434551 -s 30 -d -1 -p message -e 32 -c 2 -a 0 -i 3 -k RTR
r -t 0.092434551 -s 36 -d -1 -p message -e 32 -c 2 -a 0 -i 3 -k RTR
r -t 0.092434578 -s 25 -d -1 -p message -e 32 -c 2 -a 0 -i 3 -k RTR
r -t 0.092434578 -s 21 -d -1 -p message -e 32 -c 2 -a 0 -i 3 -k RTR
r -t 0.092434671 -s 26 -d -1 -p message -e 32 -c 2 -a 0 -i 3 -k RTR
r -t 0.092434671 -s 20 -d -1 -p message -e 32 -c 2 -a 0 -i 3 -k RTR
r -t 0.092434684 -s 37 -d -1 -p message -e 32 -c 2 -a 0 -i 3 -k RTR
r -t 0.092434780 -s 27 -d -1 -p message -e 32 -c 2 -a 0 -i 3 -k RTR
r -t 0.092434817 -s 13 -d -1 -p message -e 32 -c 2 -a 0 -i 3 -k RTR
r -t 0.092434817 -s 38 -d -1 -p message -e 32 -c 2 -a 0 -i 3 -k RTR
r -t 0.092434831 -s 14 -d -1 -p message -e 32 -c 2 -a 0 -i 3 -k RTR
r -t 0.092434831 -s 12 -d -1 -p message -e 32 -c 2 -a 0 -i 3 -k RTR
r -t 0.092434869 -s 15 -d -1 -p message -e 32 -c 2 -a 0 -i 3 -k RTR
r -t 0.092434869 -s 11 -d -1 -p message -e 32 -c 2 -a 0 -i 3 -k RTR
r -t 0.092434896 -s 28 -d -1 -p message -e 32 -c 2 -a 0 -i 3 -k RTR
r -t 0.092434928 -s 16 -d -1 -p message -e 32 -c 2 -a 0 -i 3 -k RTR
r -t 0.092434928 -s 10 -d -1 -p message -e 32 -c 2 -a 0 -i 3 -k RTR
r -t 0.092434951 -s 39 -d -1 -p message -e 32 -c 2 -a 0 -i 3 -k RTR
r -t 0.092435004 -s 17 -d -1 -p message -e 32 -c 2 -a 0 -i 3 -k RTR
r -t 0.092435017 -s 29 -d -1 -p message -e 32 -c 2 -a 0 -i 3 -k RTR
+ -t 0.122798152 -s 38 -d -1 -p message -e 32 -c 2 -a 0 -i 4 -k RTR 
- -t 0.122798152 -s 38 -d -1 -p message -e 32 -c 2 -a 0 -i 4 -k RTR
h -t 0.122798152 -s 38 -d -1 -p message -e 32 -c 2 -a 0 -i 4 -k RTR
+ -t 0.123463152 -s 38 -d -1 -p message -e 39 -c 2 -a 0 -i 4 -k MAC 
- -t 0.123463152 -s 38 -d -1 -p message -e 39 -c 2 -a 0 -i 4 -k MAC
h -t 0.123463152 -s 38 -d -1 -p message -e 39 -c 2 -a 0 -i 4 -k MAC
r -t 0.125543286 -s 37 -d -1 -p message -e 32 -c 2 -a 0 -i 4 -k MAC
r -t 0.125543286 -s 39 -d -1 -p message -e 32 -c 2 -a 0 -i 4 -k MAC
r -t 0.125543419 -s 36 -d -1 -p message -e 32 -c 2 -a 0 -i 4 -k MAC
r -t 0.125543486 -s 28 -d -1 -p message -e 32 -c 2 -a 0 -i 4 -k MAC
r -t 0.125543511 -s 29 -d -1 -p message -e 32 -c 2 -a 0 -i 4 -k MAC
r -t 0.125543511 -s 27 -d -1 -p message -e 32 -c 2 -a 0 -i 4 -k MAC
r -t 0.125543552 -s 35 -d -1 -p message -e 32 -c 2 -a 0 -i 4 -k MAC
r -t 0.125543579 -s 26 -d -1 -p message -e 32 -c 2 -a 0 -i 4 -k MAC
r -t 0.125543673 -s 25 -d -1 -p message -e 32 -c 2 -a 0 -i 4 -k MAC
r -t 0.125543686 -s 34 -d -1 -p message -e 32 -c 2 -a 0 -i 4 -k MAC
r -t 0.125543781 -s 24 -d -1 -p message -e 32 -c 2 -a 0 -i 4 -k MAC
r -t 0.125543819 -s 33 -d -1 -p message -e 32 -c 2 -a 0 -i 4 -k MAC
r -t 0.125543819 -s 18 -d -1 -p message -e 32 -c 2 -a 0 -i 4 -k MAC
r -t 0.125543832 -s 19 -d -1 -p message -e 32 -c 2 -a 0 -i 4 -k MAC
r -t 0.125543832 -s 17 -d -1 -p message -e 32 -c 2 -a 0 -i 4 -k MAC
r -t 0.125543870 -s 16 -d -1 -p message -e 32 -c 2 -a 0 -i 4 -k MAC
r -t 0.125543898 -s 23 -d -1 -p message -e 32 -c 2 -a 0 -i 4 -k MAC
r -t 0.125543930 -s 15 -d -1 -p message -e 32 -c 2 -a 0 -i 4 -k MAC
r -t 0.125543952 -s 32 -d -1 -p message -e 32 -c 2 -a 0 -i 4 -k MAC
r -t 0.125544006 -s 14 -d -1 -p message -e 32 -c 2 -a 0 -i 4 -k MAC
r -t 0.125544019 -s 22 -d -1 -p message -e 32 -c 2 -a 0 -i 4 -k MAC
r -t 0.125544086 -s 31 -d -1 -p message -e 32 -c 2 -a 0 -i 4 -k MAC
r -t 0.125568286 -s 37 -d -1 -p message -e 32 -c 2 -a 0 -i 4 -k RTR
r -t 0.125568286 -s 39 -d -1 -p message -e 32 -c 2 -a 0 -i 4 -k RTR
r -t 0.125568419 -s 36 -d -1 -p message -e 32 -c 2 -a 0 -i 4 -k RTR
r -t 0.125568486 -s 28 -d -1 -p message -e 32 -c 2 -a 0 -i 4 -k RTR
r -t 0.125568511 -s 29 -d -1 -p message -e 32 -c 2 -a 0 -i 4 -k RTR
r -t 0.125568511 -s 27 -d -1 -p message -e 32 -c 2 -a 0 -i 4 -k RTR
r -t 0.125568552 -s 35 -d -1 -p message -e 32 -c 2 -a 0 -i 4 -k RTR
r -t 0.125568579 -s 26 -d -1 -p message -e 32 -c 2 -a 0 -i 4 -k RTR
r -t 0.125568673 -s 25 -d -1 -p message -e 32 -c 2 -a 0 -i 4 -k RTR
r -t 0.125568686 -s 34 -d -1 -p message -e 32 -c 2 -a 0 -i 4 -k RTR
r -t 0.125568781 -s 24 -d -1 -p message -e 32 -c 2 -a 0 -i 4 -k RTR
r -t 0.125568819 -s 33 -d -1 -p message -e 32 -c 2 -a 0 -i 4 -k RTR
r -t 0.125568819 -s 18 -d -1 -p message -e 32 -c 2 -a 0 -i 4 -k RTR
r -t 0.125568832 -s 19 -d -1 -p message -e 32 -c 2 -a 0 -i 4 -k RTR
r -t 0.125568832 -s 17 -d -1 -p message -e 32 -c 2 -a 0 -i 4 -k RTR
r -t 0.125568870 -s 16 -d -1 -p message -e 32 -c 2 -a 0 -i 4 -k RTR
r -t 0.125568898 -s 23 -d -1 -p message -e 32 -c 2 -a 0 -i 4 -k RTR
r -t 0.125568930 -s 15 -d -1 -p message -e 32 -c 2 -a 0 -i 4 -k RTR
r -t 0.125568952 -s 32 -d -1 -p message -e 32 -c 2 -a 0 -i 4 -k RTR
r -t 0.125569006 -s 14 -d -1 -p message -e 32 -c 2 -a 0 -i 4 -k RTR
r -t 0.125569019 -s 22 -d -1 -p message -e 32 -c 2 -a 0 -i 4 -k RTR
r -t 0.125569086 -s 31 -d -1 -p message -e 32 -c 2 -a 0 -i 4 -k RTR
+ -t 0.138696360 -s 30 -d -1 -p message -e 32 -c 2 -a 0 -i 5 -k RTR 
- -t 0.138696360 -s 30 -d -1 -p message -e 32 -c 2 -a 0 -i 5 -k RTR
h -t 0.138696360 -s 30 -d -1 -p message -e 32 -c 2 -a 0 -i 5 -k RTR
+ -t 0.139681360 -s 30 -d -1 -p message -e 39 -c 2 -a 0 -i 5 -k MAC 
- -t 0.139681360 -s 30 -d -1 -p message -e 39 -c 2 -a 0 -i 5 -k MAC
h -t 0.139681360 -s 30 -d -1 -p message -e 39 -c 2 -a 0 -i 5 -k MAC
r -t 0.141761493 -s 31 -d -1 -p message -e 32 -c 2 -a 0 -i 5 -k MAC
r -t 0.141761627 -s 32 -d -1 -p message -e 32 -c 2 -a 0 -i 5 -k MAC
r -t 0.141761693 -s 20 -d -1 -p message -e 32 -c 2 -a 0 -i 5 -k MAC
r -t 0.141761719 -s 21 -d -1 -p message -e 32 -c 2 -a 0 -i 5 -k MAC
r -t 0.141761760 -s 33 -d -1 -p message -e 32 -c 2 -a 0 -i 5 -k MAC
r -t 0.141761787 -s 22 -d -1 -p message -e 32 -c 2 -a 0 -i 5 -k MAC
r -t 0.141761881 -s 23 -d -1 -p message -e 32 -c 2 -a 0 -i 5 -k MAC
r -t 0.141761893 -s 34 -d -1 -p message -e 32 -c 2 -a 0 -i 5 -k MAC
r -t 0.141761989 -s 24 -d -1 -p message -e 32 -c 2 -a 0 -i 5 -k MAC
r -t 0.141762027 -s 10 -d -1 -p message -e 32 -c 2 -a 0 -i 5 -k MAC
r -t 0.141762027 -s 35 -d -1 -p message -e 32 -c 2 -a 0 -i 5 -k MAC
r -t 0.141762040 -s 11 -d -1 -p message -e 32 -c 2 -a 0 -i 5 -k MAC
r -t 0.141762078 -s 12 -d -1 -p message -e 32 -c 2 -a 0 -i 5 -k MAC
r -t 0.141762105 -s 25 -d -1 -p message -e 32 -c 2 -a 0 -i 5 -k MAC
r -t 0.141762138 -s 13 -d -1 -p message -e 32 -c 2 -a 0 -i 5 -k MAC
r -t 0.141762160 -s 36 -d -1 -p message -e 32 -c 2 -a 0 -i 5 -k MAC
r -t 0.141762214 -s 14 -d -1 -p message -e 32 -c 2 -a 0 -i 5 -k MAC
r -t 0.141762227 -s 26 -d -1 -p message -e 32 -c 2 -a 0 -i 5 -k MAC
r -t 0.141762293 -s 37 -d -1 -p message -e 32 -c 2 -a 0 -i 5 -k MAC
r -t 0.141786493 -s 31 -d -1 -p message -e 32 -c 2 -a 0 -i 5 -k RTR
r -t 0.141786627 -s 32 -d -1 -p message -e 32 -c 2 -a 0 -i 5 -k RTR
r -t 0.141786693 -s 20 -d -1 -p message -e 32 -c 2 -a 0 -i 5 -k RTR
r -t 0.141786719 -s 21 -d -1 -p message -e 32 -c 2 -a 0 -i 5 -k RTR
r -t 0.141786760 -s 33 -d -1 -p message -e 32 -c 2 -a 0 -i 5 -k RTR
r -t 0.141786787 -s 22 -d -1 -p message -e 32 -c 2 -a 0 -i 5 -k RTR
r -t 0.141786881 -s 23 -d -1 -p message -e 32 -c 2 -a 0 -i 5 -k RTR
r -t 0.141786893 -s 34 -d -1 -p message -e 32 -c 2 -a 0 -i 5 -k RTR
r -t 0.141786989 -s 24 -d -1 -p message -e 32 -c 2 -a 0 -i 5 -k RTR
r -t 0.141787027 -s 10 -d -1 -p message -e 32 -c 2 -a 0 -i 5 -k RTR
r -t 0.141787027 -s 35 -d -1 -p message -e 32 -c 2 -a 0 -i 5 -k RTR
r -t 0.141787040 -s 11 -d -1 -p message -e 32 -c 2 -a 0 -i 5 -k RTR
r -t 0.141787078 -s 12 -d -1 -p message -e 32 -c 2 -a 0 -i 5 -k RTR
r -t 0.141787105 -s 25 -d -1 -p message -e 32 -c 2 -a 0 -i 5 -k RTR
r -t 0.141787138 -s 13 -d -1 -p message -e 32 -c 2 -a 0 -i 5 -k RTR
r -t 0.141787160 -s 36 -d -1 -p message -e 32 -c 2 -a 0 -i 5 -k RTR
r -t 0.141787214 -s 14 -d -1 -p message -e 32 -c 2 -a 0 -i 5 -k RTR
r -t 0.141787227 -s 26 -d -1 -p message -e 32 -c 2 -a 0 -i 5 -k RTR
r -t 0.141787293 -s 37 -d -1 -p message -e 32 -c 2 -a 0 -i 5 -k RTR
+ -t 0.245652115 -s 17 -d -1 -p message -e 32 -c 2 -a 0 -i 6 -k RTR 
- -t 0.245652115 -s 17 -d -1 -p message -e 32 -c 2 -a 0 -i 6 -k RTR
h -t 0.245652115 -s 17 -d -1 -p message -e 32 -c 2 -a 0 -i 6 -k RTR
+ -t 0.248237115 -s 17 -d -1 -p message -e 39 -c 2 -a 0 -i 6 -k MAC 
- -t 0.248237115 -s 17 -d -1 -p message -e 39 -c 2 -a 0 -i 6 -k MAC
h -t 0.248237115 -s 17 -d -1 -p message -e 39 -c 2 -a 0 -i 6 -k MAC
r -t 0.250317248 -s 16 -d -1 -p message -e 32 -c 2 -a 0 -i 6 -k MAC
r -t 0.250317248 -s 18 -d -1 -p message -e 32 -c 2 -a 0 -i 6 -k MAC
r -t 0.250317382 -s 15 -d -1 -p message -e 32 -c 2 -a 0 -i 6 -k MAC
r -t 0.250317382 -s 19 -d -1 -p message -e 32 -c 2 -a 0 -i 6 -k MAC
r -t 0.250317448 -s 7 -d -1 -p message -e 32 -c 2 -a 0 -i 6 -k MAC
r -t 0.250317448 -s 27 -d -1 -p message -e 32 -c 2 -a 0 -i 6 -k MAC
r -t 0.250317474 -s 8 -d -1 -p message -e 32 -c 2 -a 0 -i 6 -k MAC
r -t 0.250317474 -s 6 -d -1 -p message -e 32 -c 2 -a 0 -i 6 -k MAC
r -t 0.250317474 -s 26 -d -1 -p message -e 32 -c 2 -a 0 -i 6 -k MAC
r -t 0.250317474 -s 28 -d -1 -p message -e 32 -c 2 -a 0 -i 6 -k MAC
r -t 0.250317515 -s 14 -d -1 -p message -e 32 -c 2 -a 0 -i 6 -k MAC
r -t 0.250317542 -s 9 -d -1 -p message -e 32 -c 2 -a 0 -i 6 -k MAC
r -t 0.250317542 -s 5 -d -1 -p message -e 32 -c 2 -a 0 -i 6 -k MAC
r -t 0.250317542 -s 25 -d -1 -p message -e 32 -c 2 -a 0 -i 6 -k MAC
r -t 0.250317542 -s 29 -d -1 -p message -e 32 -c 2 -a 0 -i 6 -k MAC
r -t 0.250317636 -s 4 -d -1 -p message -e 32 -c 2 -a 0 -i 6 -k MAC
r -t 0.250317636 -s 24 -d -1 -p message -e 32 -c 2 -a 0 -i 6 -k MAC
r -t 0.250317648 -s 13 -d -1 -p message -e 32 -c 2 -a 0 -i 6 -k MAC
r -t 0.250317744 -s 3 -d -1 -p message -e 32 -c 2 -a 0 -i 6 -k MAC
r -t 0.250317744 -s 23 -d -1 -p message -e 32 -c 2 -a 0 -i 6 -k MAC
r -t 0.250317782 -s 12 -d -1 -p message -e 32 -c 2 -a 0 -i 6 -k MAC
r -t 0.250317782 -s 37 -d -1 -p message -e 32 -c 2 -a 0 -i 6 -k MAC
r -t 0.250317795 -s 36 -d -1 -p message -e 32 -c 2 -a 0 -i 6 -k MAC