M 0.00000 1 (0.00, 1.00, 0.00), (1.00, 1.00), 4.00
M 0.00000 2 (0.00, 0.00, 0.00), (1.00, 1.00), 1.00
M 0.00000 9 (1.00, 0.00, 0.00), (1.00, 1.00), 1.00
s 1.000000000 _6_ AGT  --- 0 tcp 40 [0 0 0 0] ------- [6:0 0:0 32 0] [0 0] 0 0
r 1.000000000 _6_ RTR  --- 0 tcp 40 [0 0 0 0] ------- [6:0 0:0 32 0] [0 0] 0 0
s 1.000000000 _6_ AGT  --- 1 tcp 1040 [0 0 0 0] ------- [6:0 0:0 32 0] [1 0] 0 0
r 1.000000000 _6_ RTR  --- 1 tcp 1040 [0 0 0 0] ------- [6:0 0:0 32 0] [1 0] 0 0
s 1.000000000 _3_ AGT  --- 2 tcp 40 [0 0 0 0] ------- [3:0 5:0 32 0] [0 0] 0 0
r 1.000000000 _3_ RTR  --- 2 tcp 40 [0 0 0 0] ------- [3:0 5:0 32 0] [0 0] 0 0
s 1.000000000 _3_ AGT  --- 3 tcp 1040 [0 0 0 0] ------- [3:0 5:0 32 0] [1 0] 0 0
r 1.000000000 _3_ RTR  --- 3 tcp 1040 [0 0 0 0] ------- [3:0 5:0 32 0] [1 0] 0 0
s 1.000000000 _5_ AGT  --- 4 tcp 40 [0 0 0 0] ------- [5:1 0:1 32 0] [0 0] 0 0
r 1.000000000 _5_ RTR  --- 4 tcp 40 [0 0 0 0] ------- [5:1 0:1 32 0] [0 0] 0 0
s 1.000000000 _5_ AGT  --- 5 tcp 1040 [0 0 0 0] ------- [5:1 0:1 32 0] [1 0] 0 0
r 1.000000000 _5_ RTR  --- 5 tcp 1040 [0 0 0 0] ------- [5:1 0:1 32 0] [1 0] 0 0
s 1.000000000 _1_ AGT  --- 6 tcp 40 [0 0 0 0] ------- [1:0 5:2 32 0] [0 0] 0 0
r 1.000000000 _1_ RTR  --- 6 tcp 40 [0 0 0 0] ------- [1:0 5:2 32 0] [0 0] 0 0
s 1.000000000 _1_ AGT  --- 7 tcp 1040 [0 0 0 0] ------- [1:0 5:2 32 0] [1 0] 0 0
r 1.000000000 _1_ RTR  --- 7 tcp 1040 [0 0 0 0] ------- [1:0 5:2 32 0] [1 0] 0 0
s 1.000000000 _3_ AGT  --- 8 tcp 40 [0 0 0 0] ------- [3:1 8:0 32 0] [0 0] 0 0
r 1.000000000 _3_ RTR  --- 8 tcp 40 [0 0 0 0] ------- [3:1 8:0 32 0] [0 0] 0 0
s 1.000000000 _3_ AGT  --- 9 tcp 1040 [0 0 0 0] ------- [3:1 8:0 32 0] [1 0] 0 0
r 1.000000000 _3_ RTR  --- 9 tcp 1040 [0 0 0 0] ------- [3:1 8:0 32 0] [1 0] 0 0
s 1.000000000 _9_ AGT  --- 10 tcp 40 [0 0 0 0] ------- [9:0 6:1 32 0] [0 0] 0 0
r 1.000000000 _9_ RTR  --- 10 tcp 40 [0 0 0 0] ------- [9:0 6:1 32 0] [0 0] 0 0
s 1.000000000 _9_ AGT  --- 11 tcp 1040 [0 0 0 0] ------- [9:0 6:1 32 0] [1 0] 0 0
r 1.000000000 _9_ RTR  --- 11 tcp 1040 [0 0 0 0] ------- [9:0 6:1 32 0] [1 0] 0 0
s 1.000000000 _9_ AGT  --- 12 tcp 40 [0 0 0 0] ------- [9:1 2:0 32 0] [0 0] 0 0
r 1.000000000 _9_ RTR  --- 12 tcp 40 [0 0 0 0] ------- [9:1 2:0 32 0] [0 0] 0 0
s 1.000000000 _9_ AGT  --- 13 tcp 1040 [0 0 0 0] ------- [9:1 2:0 32 0] [1 0] 0 0
r 1.000000000 _9_ RTR  --- 13 tcp 1040 [0 0 0 0] ------- [9:1 2:0 32 0] [1 0] 0 0
s 1.000000000 _5_ AGT  --- 14 tcp 40 [0 0 0 0] ------- [5:3 4:0 32 0] [0 0] 0 0
r 1.000000000 _5_ RTR  --- 14 tcp 40 [0 0 0 0] ------- [5:3 4:0 32 0] [0 0] 0 0
s 1.000000000 _5_ AGT  --- 15 tcp 1040 [0 0 0 0] ------- [5:3 4:0 32 0] [1 0] 0 0
r 1.000000000 _5_ RTR  --- 15 tcp 1040 [0 0 0 0] ------- [5:3 4:0 32 0] [1 0] 0 0
s 1.000000000 _9_ AGT  --- 16 tcp 40 [0 0 0 0] ------- [9:2 7:0 32 0] [0 0] 0 0
r 1.000000000 _9_ RTR  --- 16 tcp 40 [0 0 0 0] ------- [9:2 7:0 32 0] [0 0] 0 0
s 1.000000000 _9_ AGT  --- 17 tcp 1040 [0 0 0 0] ------- [9:2 7:0 32 0] [1 0] 0 0
r 1.000000000 _9_ RTR  --- 17 tcp 1040 [0 0 0 0] ------- [9:2 7:0 32 0] [1 0] 0 0
s 1.000000000 _5_ AGT  --- 18 tcp 40 [0 0 0 0] ------- [5:4 8:1 32 0] [0 0] 0 0
r 1.000000000 _5_ RTR  --- 18 tcp 40 [0 0 0 0] ------- [5:4 8:1 32 0] [0 0] 0 0
s 1.000000000 _5_ AGT  --- 19 tcp 1040 [0 0 0 0] ------- [5:4 8:1 32 0] [1 0] 0 0
r 1.000000000 _5_ RTR  --- 19 tcp 1040 [0 0 0 0] ------- [5:4 8:1 32 0] [1 0] 0 0
s 1.000000000 _2_ AGT  --- 20 tcp 40 [0 0 0 0] ------- [2:1 4:1 32 0] [0 0] 0 0
r 1.000000000 _2_ RTR  --- 20 tcp 40 [0 0 0 0] ------- [2:1 4:1 32 0] [0 0] 0 0
s 1.000000000 _2_ AGT  --- 21 tcp 1040 [0 0 0 0] ------- [2:1 4:1 32 0] [1 0] 0 0
r 1.000000000 _2_ RTR  --- 21 tcp 1040 [0 0 0 0] ------- [2:1 4:1 32 0] [1 0] 0 0
s 1.000000000 _5_ AGT  --- 22 tcp 40 [0 0 0 0] ------- [5:5 0:2 32 0] [0 0] 0 0
r 1.000000000 _5_ RTR  --- 22 tcp 40 [0 0 0 0] ------- [5:5 0:2 32 0] [0 0] 0 0
s 1.000000000 _5_ AGT  --- 23 tcp 1040 [0 0 0 0] ------- [5:5 0:2 32 0] [1 0] 0 0
r 1.000000000 _5_ RTR  --- 23 tcp 1040 [0 0 0 0] ------- [5:5 0:2 32 0] [1 0] 0 0
s 1.000000000 _9_ AGT  --- 24 tcp 40 [0 0 0 0] ------- [9:3 1:1 32 0] [0 0] 0 0
r 1.000000000 _9_ RTR  --- 24 tcp 40 [0 0 0 0] ------- [9:3 1:1 32 0] [0 0] 0 0
s 1.000000000 _9_ AGT  --- 25 tcp 1040 [0 0 0 0] ------- [9:3 1:1 32 0] [1 0] 0 0
r 1.000000000 _9_ RTR  --- 25 tcp 1040 [0 0 0 0] ------- [9:3 1:1 32 0] [1 0] 0 0
s 1.000000000 _6_ AGT  --- 26 tcp 40 [0 0 0 0] ------- [6:2 4:2 32 0] [0 0] 0 0
r 1.000000000 _6_ RTR  --- 26 tcp 40 [0 0 0 0] ------- [6:2 4:2 32 0] [0 0] 0 0
s 1.000000000 _6_ AGT  --- 27 tcp 1040 [0 0 0 0] ------- [6:2 4:2 32 0] [1 0] 0 0
r 1.000000000 _6_ RTR  --- 27 tcp 1040 [0 0 0 0] ------- [6:2 4:2 32 0] [1 0] 0 0
s 1.000000000 _1_ AGT  --- 28 tcp 40 [0 0 0 0] ------- [1:2 3:2 32 0] [0 0] 0 0
r 1.000000000 _1_ RTR  --- 28 tcp 40 [0 0 0 0] ------- [1:2 3:2 32 0] [0 0] 0 0
s 1.000000000 _1_ AGT  --- 29 tcp 1040 [0 0 0 0] ------- [1:2 3:2 32 0] [1 0] 0 0
r 1.000000000 _1_ RTR  --- 29 tcp 1040 [0 0 0 0] ------- [1:2 3:2 32 0] [1 0] 0 0
s 1.000000000 _0_ AGT  --- 30 tcp 40 [0 0 0 0] ------- [0:3 1:3 32 0] [0 0] 0 0
r 1.000000000 _0_ RTR  --- 30 tcp 40 [0 0 0 0] ------- [0:3 1:3 32 0] [0 0] 0 0
s 1.000000000 _0_ AGT  --- 31 tcp 1040 [0 0 0 0] ------- [0:3 1:3 32 0] [1 0] 0 0
r 1.000000000 _0_ RTR  --- 31 tcp 1040 [0 0 0 0] ------- [0:3 1:3 32 0] [1 0] 0 0
s 1.000000000 _1_ AGT  --- 32 tcp 40 [0 0 0 0] ------- [1:4 5:6 32 0] [0 0] 0 0
r 1.000000000 _1_ RTR  --- 32 tcp 40 [0 0 0 0] ------- [1:4 5:6 32 0] [0 0] 0 0
s 1.000000000 _1_ AGT  --- 33 tcp 1040 [0 0 0 0] ------- [1:4 5:6 32 0] [1 0] 0 0
r 1.000000000 _1_ RTR  --- 33 tcp 1040 [0 0 0 0] ------- [1:4 5:6 32 0] [1 0] 0 0
s 1.000000000 _5_ AGT  --- 34 tcp 40 [0 0 0 0] ------- [5:7 4:3 32 0] [0 0] 0 0
r 1.000000000 _5_ RTR  --- 34 tcp 40 [0 0 0 0] ------- [5:7 4:3 32 0] [0 0] 0 0
s 1.000000000 _5_ AGT  --- 35 tcp 1040 [0 0 0 0] ------- [5:7 4:3 32 0] [1 0] 0 0
r 1.000000000 _5_ RTR  --- 35 tcp 1040 [0 0 0 0] ------- [5:7 4:3 32 0] [1 0] 0 0
s 1.000000000 _0_ AGT  --- 36 tcp 40 [0 0 0 0] ------- [0:4 9:4 32 0] [0 0] 0 0
r 1.000000000 _0_ RTR  --- 36 tcp 40 [0 0 0 0] ------- [0:4 9:4 32 0] [0 0] 0 0
s 1.000000000 _0_ AGT  --- 37 tcp 1040 [0 0 0 0] ------- [0:4 9:4 32 0] [1 0] 0 0
r 1.000000000 _0_ RTR  --- 37 tcp 1040 [0 0 0 0] ------- [0:4 9:4 32 0] [1 0] 0 0
s 1.000000000 _3_ AGT  --- 38 tcp 40 [0 0 0 0] ------- [3:3 9:5 32 0] [0 0] 0 0
r 1.000000000 _3_ RTR  --- 38 tcp 40 [0 0 0 0] ------- [3:3 9:5 32 0] [0 0] 0 0
s 1.000000000 _3_ AGT  --- 39 tcp 1040 [0 0 0 0] ------- [3:3 9:5 32 0] [1 0] 0 0
r 1.000000000 _3_ RTR  --- 39 tcp 1040 [0 0 0 0] ------- [3:3 9:5 32 0] [1 0] 0 0
s 1.000000000 _6_ RTR  --- 0 AODV 48 [0 0 0 0] ------- [6:255 -1:255 30 0] [0x2 1 1 [0 0] [6 4]] (REQUEST)
s 1.000000000 _3_ RTR  --- 0 AODV 48 [0 0 0 0] ------- [3:255 -1:255 30 0] [0x2 1 1 [5 0] [3 4]] (REQUEST)
s 1.000000000 _5_ RTR  --- 0 AODV 48 [0 0 0 0] ------- [5:255 -1:255 30 0] [0x2 1 1 [0 0] [5 4]] (REQUEST)
s 1.000000000 _1_ RTR  --- 0 AODV 48 [0 0 0 0] ------- [1:255 -1:255 30 0] [0x2 1 1 [5 0] [1 4]] (REQUEST)
s 1.000000000 _3_ RTR  --- 0 AODV 48 [0 0 0 0] ------- [3:255 -1:255 30 0] [0x2 1 2 [8 0] [3 6]] (REQUEST)
s 1.000000000 _9_ RTR  --- 0 AODV 48 [0 0 0 0] ------- [9:255 -1:255 30 0] [0x2 1 1 [6 0] [9 4]] (REQUEST)
s 1.000000000 _9_ RTR  --- 0 AODV 48 [0 0 0 0] ------- [9:255 -1:255 30 0] [0x2 1 2 [2 0] [9 6]] (REQUEST)
s 1.000000000 _5_ RTR  --- 0 AODV 48 [0 0 0 0] ------- [5:255 -1:255 30 0] [0x2 1 2 [4 0] [5 6]] (REQUEST)
s 1.000000000 _9_ RTR  --- 0 AODV 48 [0 0 0 0] ------- [9:255 -1:255 30 0] [0x2 1 3 [7 0] [9 8]] (REQUEST)
s 1.000000000 _5_ RTR  --- 0 AODV 48 [0 0 0 0] ------- [5:255 -1:255 30 0] [0x2 1 3 [8 0] [5 8]] (REQUEST)
s 1.000000000 _2_ RTR  --- 0 AODV 48 [0 0 0 0] ------- [2:255 -1:255 30 0] [0x2 1 1 [4 0] [2 4]] (REQUEST)
s 1.000000000 _9_ RTR  --- 0 AODV 48 [0 0 0 0] ------- [9:255 -1:255 30 0] [0x2 1 4 [1 0] [9 10]] (REQUEST)
s 1.000000000 _6_ RTR  --- 0 AODV 48 [0 0 0 0] ------- [6:255 -1:255 30 0] [0x2 1 2 [4 0] [6 6]] (REQUEST)
s 1.000000000 _1_ RTR  --- 0 AODV 48 [0 0 0 0] ------- [1:255 -1:255 30 0] [0x2 1 2 [3 0] [1 6]] (REQUEST)
s 1.000000000 _0_ RTR  --- 0 AODV 48 [0 0 0 0] ------- [0:255 -1:255 30 0] [0x2 1 1 [1 0] [0 4]] (REQUEST)
s 1.000000000 _0_ RTR  --- 0 AODV 48 [0 0 0 0] ------- [0:255 -1:255 30 0] [0x2 1 2 [9 0] [0 6]] (REQUEST)
s 1.000000000 _3_ RTR  --- 0 AODV 48 [0 0 0 0] ------- [3:255 -1:255 30 0] [0x2 1 3 [9 0] [3 8]] (REQUEST)
r 1.000968000 _0_ RTR  --- 0 AODV 48 [0 ffffffff 1 800] ------- [1:255 -1:255 30 0] [0x2 1 1 [5 0] [1 4]] (REQUEST)
r 1.000968000 _6_ RTR  --- 0 AODV 48 [0 ffffffff 1 800] ------- [1:255 -1:255 30 0] [0x2 1 1 [5 0] [1 4]] (REQUEST)
r 1.000968000 _9_ RTR  --- 0 AODV 48 [0 ffffffff 1 800] ------- [1:255 -1:255 30 0] [0x2 1 1 [5 0] [1 4]] (REQUEST)
s 1.000968000 _0_ RTR  --- 30 tcp 40 [0 0 0 0] ------- [0:3 1:3 30 1] [0 0] 0 0
s 1.000968000 _0_ RTR  --- 31 tcp 1040 [0 0 0 0] ------- [0:3 1:3 30 1] [1 0] 0 0
D 1.000968000 _0_ IFQ  ARP 30 tcp 40 [0 0 0 800] ------- [0:3 1:3 30 1] [0 0] 0 0
s 1.000968000 _9_ RTR  --- 24 tcp 40 [0 0 0 0] ------- [9:3 1:1 30 1] [0 0] 0 0
s 1.000968000 _9_ RTR  --- 25 tcp 1040 [0 0 0 0] ------- [9:3 1:1 30 1] [1 0] 0 0
D 1.000968000 _9_ IFQ  ARP 24 tcp 40 [0 0 9 800] ------- [9:3 1:1 30 1] [0 0] 0 0
r 1.000968001 _2_ RTR  --- 0 AODV 48 [0 ffffffff 1 800] ------- [1:255 -1:255 30 0] [0x2 1 1 [5 0] [1 4]] (REQUEST)
r 1.000968003 _7_ RTR  --- 0 AODV 48 [0 ffffffff 1 800] ------- [1:255 -1:255 30 0] [0x2 1 1 [5 0] [1 4]] (REQUEST)
r 1.000968003 _3_ RTR  --- 0 AODV 48 [0 ffffffff 1 800] ------- [1:255 -1:255 30 0] [0x2 1 1 [5 0] [1 4]] (REQUEST)
r 1.000968003 _4_ RTR  --- 0 AODV 48 [0 ffffffff 1 800] ------- [1:255 -1:255 30 0] [0x2 1 1 [5 0] [1 4]] (REQUEST)
r 1.000968003 _5_ RTR  --- 0 AODV 48 [0 ffffffff 1 800] ------- [1:255 -1:255 30 0] [0x2 1 1 [5 0] [1 4]] (REQUEST)
r 1.000968003 _8_ RTR  --- 0 AODV 48 [0 ffffffff 1 800] ------- [1:255 -1:255 30 0] [0x2 1 1 [5 0] [1 4]] (REQUEST)
s 1.000968003 _5_ RTR  --- 0 AODV 44 [0 0 0 0] ------- [5:255 1:255 30 1] [0x4 1 [5 10] 10.000000] (REPLY)
D 1.000973000 _9_ IFQ  --- 0 ARP 28 [0 ffffffff 9 806] ------- [REQUEST 9/9 0/1]
r 1.002026000 _1_ RTR  --- 0 AODV 48 [0 ffffffff 0 800] ------- [0:255 -1:255 30 0] [0x2 1 1 [1 0] [0 4]] (REQUEST)
r 1.002026000 _6_ RTR  --- 0 AODV 48 [0 ffffffff 0 800] ------- [0:255 -1:255 30 0] [0x2 1 1 [1 0] [0 4]] (REQUEST)
r 1.002026000 _9_ RTR  --- 0 AODV 48 [0 ffffffff 0 800] ------- [0:255 -1:255 30 0] [0x2 1 1 [1 0] [0 4]] (REQUEST)
s 1.002026000 _1_ RTR  --- 0 AODV 44 [0 0 0 0] ------- [1:255 0:255 30 0] [0x4 1 [1 8] 10.000000] (REPLY)
s 1.002026000 _6_ RTR  --- 0 tcp 40 [0 0 0 0] ------- [6:0 0:0 30 0] [0 0] 0 0
s 1.002026000 _6_ RTR  --- 1 tcp 1040 [0 0 0 0] ------- [6:0 0:0 30 0] [1 0] 0 0
D 1.002026000 _6_ IFQ  ARP 0 tcp 40 [0 0 6 800] ------- [6:0 0:0 30 0] [0 0] 0 0
s 1.002026000 _6_ RTR  --- 0 AODV 44 [0 0 0 0] ------- [6:255 0:255 30 0] [0x4 2 [1 4] 5.000000] (REPLY)
D 1.002026000 _6_ IFQ  ARP 1 tcp 1040 [0 0 6 800] ------- [6:0 0:0 30 0] [1 0] 0 0
s 1.002026000 _9_ RTR  --- 0 AODV 44 [0 0 0 0] ------- [9:255 0:255 30 0] [0x4 2 [1 4] 9.000000] (REPLY)
r 1.002026001 _2_ RTR  --- 0 AODV 48 [0 ffffffff 0 800] ------- [0:255 -1:255 30 0] [0x2 1 1 [1 0] [0 4]] (REQUEST)
s 1.002026001 _2_ RTR  --- 0 AODV 44 [0 0 0 0] ------- [2:255 0:255 30 0] [0x4 2 [1 4] 5.000000] (REPLY)
r 1.002026003 _7_ RTR  --- 0 AODV 48 [0 ffffffff 0 800] ------- [0:255 -1:255 30 0] [0x2 1 1 [1 0] [0 4]] (REQUEST)
r 1.002026003 _3_ RTR  --- 0 AODV 48 [0 ffffffff 0 800] ------- [0:255 -1:255 30 0] [0x2 1 1 [1 0] [0 4]] (REQUEST)
r 1.002026003 _4_ RTR  --- 0 AODV 48 [0 ffffffff 0 800] ------- [0:255 -1:255 30 0] [0x2 1 1 [1 0] [0 4]] (REQUEST)
r 1.002026003 _5_ RTR  --- 0 AODV 48 [0 ffffffff 0 800] ------- [0:255 -1:255 30 0] [0x2 1 1 [1 0] [0 4]] (REQUEST)
r 1.002026003 _8_ RTR  --- 0 AODV 48 [0 ffffffff 0 800] ------- [0:255 -1:255 30 0] [0x2 1 1 [1 0] [0 4]] (REQUEST)
s 1.002026003 _7_ RTR  --- 0 AODV 44 [0 0 0 0] ------- [7:255 0:255 30 0] [0x4 2 [1 4] 5.000000] (REPLY)
s 1.002026003 _3_ RTR  --- 0 AODV 44 [0 0 0 0] ------- [3:255 0:255 30 0] [0x4 2 [1 4] 5.000000] (REPLY)
s 1.002026003 _4_ RTR  --- 0 AODV 44 [0 0 0 0] ------- [4:255 0:255 30 0] [0x4 2 [1 4] 5.000000] (REPLY)
s 1.002026003 _5_ RTR  --- 4 tcp 40 [0 0 0 0] ------- [5:1 0:1 30 0] [0 0] 0 0
s 1.002026003 _5_ RTR  --- 5 tcp 1040 [0 0 0 0] ------- [5:1 0:1 30 0] [1 0] 0 0
D 1.002026003 _5_ IFQ  ARP 4 tcp 40 [0 0 5 800] ------- [5:1 0:1 30 0] [0 0] 0 0
s 1.002026003 _5_ RTR  --- 22 tcp 40 [0 0 0 0] ------- [5:5 0:2 30 0] [0 0] 0 0
D 1.002026003 _5_ IFQ  ARP 5 tcp 1040 [0 0 5 800] ------- [5:1 0:1 30 0] [1 0] 0 0
s 1.002026003 _5_ RTR  --- 23 tcp 1040 [0 0 0 0] ------- [5:5 0:2 30 0] [1 0] 0 0
D 1.002026003 _5_ RTR  CBK 22 tcp 40 [0 0 5 800] ------- [5:5 0:2 30 0] [0 0] 0 0
D 1.002026003 _5_ RTR  CBK 23 tcp 1040 [0 0 5 800] ------- [5:5 0:2 30 0] [1 0] 0 0
s 1.002026003 _5_ RTR  --- 0 AODV 44 [0 0 0 0] ------- [5:255 0:255 30 0] [0x4 2 [1 4] 5.000000] (REPLY)
s 1.002026003 _8_ RTR  --- 0 AODV 44 [0 0 0 0] ------- [8:255 0:255 30 0] [0x4 2 [1 4] 5.000000] (REPLY)
s 1.002026003 _5_ RTR  --- 0 AODV 32 [0 0 0 0] ------- [5:255 -1:255 1 0] [0x8 1 [0 0] 0.000000] (ERROR)
D 1.002031000 _9_ IFQ  --- 0 ARP 28 [0 ffffffff 9 806] ------- [REQUEST 9/9 0/0]
D 1.002031003 _5_ IFQ  --- 0 ARP 28 [0 ffffffff 5 806] ------- [REQUEST 5/5 0/0]
D 1.002031003 _5_ IFQ  --- 0 ARP 28 [0 ffffffff 5 806] ------- [REQUEST 5/5 0/0]
D 1.002031003 _5_ IFQ  --- 0 ARP 28 [0 ffffffff 5 806] ------- [REQUEST 5/5 0/0]
D 1.002051003 _5_ IFQ  --- 0 ARP 28 [0 ffffffff 5 806] ------- [REQUEST 5/5 0/0]
r 1.002944003 _4_ RTR  --- 0 AODV 48 [0 ffffffff 3 800] ------- [3:255 -1:255 30 0] [0x2 1 1 [5 0] [3 4]] (REQUEST)
r 1.002944003 _5_ RTR  --- 0 AODV 48 [0 ffffffff 3 800] ------- [3:255 -1:255 30 0] [0x2 1 1 [5 0] [3 4]] (REQUEST)
r 1.002944003 _8_ RTR  --- 0 AODV 48 [0 ffffffff 3 800] ------- [3:255 -1:255 30 0] [0x2 1 1 [5 0] [3 4]] (REQUEST)
s 1.002944003 _5_ RTR  --- 0 AODV 44 [0 0 0 0] ------- [5:255 3:255 30 3] [0x4 1 [5 16] 10.000000] (REPLY)
r 1.002944006 _2_ RTR  --- 0 AODV 48 [0 ffffffff 3 800] ------- [3:255 -1:255 30 0] [0x2 1 1 [5 0] [3 4]] (REQUEST)
r 1.002944007 _0_ RTR  --- 0 AODV 48 [0 ffffffff 3 800] ------- [3:255 -1:255 30 0] [0x2 1 1 [5 0] [3 4]] (REQUEST)
r 1.002944007 _1_ RTR  --- 0 AODV 48 [0 ffffffff 3 800] ------- [3:255 -1:255 30 0] [0x2 1 1 [5 0] [3 4]] (REQUEST)
r 1.002944007 _6_ RTR  --- 0 AODV 48 [0 ffffffff 3 800] ------- [3:255 -1:255 30 0] [0x2 1 1 [5 0] [3 4]] (REQUEST)
r 1.002944007 _9_ RTR  --- 0 AODV 48 [0 ffffffff 3 800] ------- [3:255 -1:255 30 0] [0x2 1 1 [5 0] [3 4]] (REQUEST)
s 1.002944007 _1_ RTR  --- 28 tcp 40 [0 0 0 0] ------- [1:2 3:2 30 3] [0 0] 0 0
s 1.002944007 _1_ RTR  --- 29 tcp 1040 [0 0 0 0] ------- [1:2 3:2 30 3] [1 0] 0 0
D 1.002944007 _1_ IFQ  ARP 28 tcp 40 [0 0 1 800] ------- [1:2 3:2 30 3] [0 0] 0 0
r 1.002944008 _7_ RTR  --- 0 AODV 48 [0 ffffffff 3 800] ------- [3:255 -1:255 30 0] [0x2 1 1 [5 0] [3 4]] (REQUEST)
D 1.002949003 _5_ IFQ  --- 0 ARP 28 [0 ffffffff 5 806] ------- [REQUEST 5/5 0/3]
s 1.003052090 _0_ RTR  --- 0 AODV 48 [0 ffffffff 3 800] ------- [0:255 -1:255 29 0] [0x2 2 1 [5 0] [3 4]] (REQUEST)
s 1.003139595 _6_ RTR  --- 0 AODV 48 [0 ffffffff 1 800] ------- [6:255 -1:255 29 0] [0x2 2 1 [5 0] [1 4]] (REQUEST)
D 1.003164595 _6_ IFQ  --- 0 ARP 28 [0 ffffffff 6 806] ------- [REQUEST 6/6 0/0]
s 1.003380256 _9_ RTR  --- 0 AODV 48 [0 ffffffff 1 800] ------- [9:255 -1:255 29 0] [0x2 2 1 [5 0] [1 4]] (REQUEST)
D 1.003405256 _9_ IFQ  --- 0 ARP 28 [0 ffffffff 9 806] ------- [REQUEST 9/9 0/1]
s 1.003528032 _2_ RTR  --- 0 AODV 48 [0 ffffffff 3 800] ------- [2:255 -1:255 29 0] [0x2 2 1 [5 0] [3 4]] (REQUEST)
r 1.003862003 _4_ RTR  --- 0 AODV 48 [0 ffffffff 5 800] ------- [5:255 -1:255 30 0] [0x2 1 1 [0 0] [5 4]] (REQUEST)
r 1.003862003 _3_ RTR  --- 0 AODV 48 [0 ffffffff 5 800] ------- [5:255 -1:255 30 0] [0x2 1 1 [0 0] [5 4]] (REQUEST)
r 1.003862003 _8_ RTR  --- 0 AODV 48 [0 ffffffff 5 800] ------- [5:255 -1:255 30 0] [0x2 1 1 [0 0] [5 4]] (REQUEST)
s 1.003862003 _4_ RTR  --- 0 AODV 44 [0 0 0 0] ------- [4:255 5:255 30 5] [0x4 2 [0 4] 5.000000] (REPLY)
s 1.003862003 _3_ RTR  --- 2 tcp 40 [0 0 0 0] ------- [3:0 5:0 30 5] [0 0] 0 0
s 1.003862003 _3_ RTR  --- 3 tcp 1040 [0 0 0 0] ------- [3:0 5:0 30 5] [1 0] 0 0
D 1.003862003 _3_ IFQ  ARP 2 tcp 40 [0 0 3 800] ------- [3:0 5:0 30 5] [0 0] 0 0
s 1.003862003 _3_ RTR  --- 0 AODV 44 [0 0 0 0] ------- [3:255 5:255 30 5] [0x4 2 [0 4] 5.000000] (REPLY)
D 1.003862003 _3_ IFQ  ARP 3 tcp 1040 [0 0 3 800] ------- [3:0 5:0 30 5] [1 0] 0 0
s 1.003862003 _8_ RTR  --- 0 AODV 44 [0 0 0 0] ------- [8:255 5:255 30 5] [0x4 2 [0 4] 5.000000] (REPLY)
r 1.003862006 _2_ RTR  --- 0 AODV 48 [0 ffffffff 5 800] ------- [5:255 -1:255 30 0] [0x2 1 1 [0 0] [5 4]] (REQUEST)
s 1.003862006 _2_ RTR  --- 0 AODV 44 [0 0 0 0] ------- [2:255 5:255 30 5] [0x4 2 [0 4] 5.000000] (REPLY)
r 1.003862007 _0_ RTR  --- 0 AODV 48 [0 ffffffff 5 800] ------- [5:255 -1:255 30 0] [0x2 1 1 [0 0] [5 4]] (REQUEST)
r 1.003862007 _1_ RTR  --- 0 AODV 48 [0 ffffffff 5 800] ------- [5:255 -1:255 30 0] [0x2 1 1 [0 0] [5 4]] (REQUEST)
r 1.003862007 _6_ RTR  --- 0 AODV 48 [0 ffffffff 5 800] ------- [5:255 -1:255 30 0] [0x2 1 1 [0 0] [5 4]] (REQUEST)
r 1.003862007 _9_ RTR  --- 0 AODV 48 [0 ffffffff 5 800] ------- [5:255 -1:255 30 0] [0x2 1 1 [0 0] [5 4]] (REQUEST)
s 1.003862007 _0_ RTR  --- 0 AODV 44 [0 0 0 0] ------- [0:255 5:255 30 5] [0x4 1 [0 8] 10.000000] (REPLY)
s 1.003862007 _1_ RTR  --- 6 tcp 40 [0 0 0 0] ------- [1:0 5:2 30 5] [0 0] 0 0
s 1.003862007 _1_ RTR  --- 7 tcp 1040 [0 0 0 0] ------- [1:0 5:2 30 5] [1 0] 0 0
D 1.003862007 _1_ IFQ  ARP 6 tcp 40 [0 0 1 800] ------- [1:0 5:2 30 5] [0 0] 0 0
s 1.003862007 _1_ RTR  --- 32 tcp 40 [0 0 0 0] ------- [1:4 5:6 30 5] [0 0] 0 0
D 1.003862007 _1_ IFQ  ARP 7 tcp 1040 [0 0 1 800] ------- [1:0 5:2 30 5] [1 0] 0 0
s 1.003862007 _1_ RTR  --- 33 tcp 1040 [0 0 0 0] ------- [1:4 5:6 30 5] [1 0] 0 0
D 1.003862007 _1_ RTR  CBK 32 tcp 40 [0 0 1 800] ------- [1:4 5:6 30 5] [0 0] 0 0
D 1.003862007 _1_ RTR  CBK 33 tcp 1040 [0 0 1 800] ------- [1:4 5:6 30 5] [1 0] 0 0
s 1.003862007 _1_ RTR  --- 0 AODV 44 [0 0 0 0] ------- [1:255 5:255 30 5] [0x4 2 [0 4] 5.000000] (REPLY)
s 1.003862007 _6_ RTR  --- 0 AODV 44 [0 0 0 0] ------- [6:255 5:255 30 5] [0x4 2 [0 4] 9.000000] (REPLY)
s 1.003862007 _9_ RTR  --- 0 AODV 44 [0 0 0 0] ------- [9:255 5:255 30 5] [0x4 2 [0 4] 5.000000] (REPLY)
s 1.003862007 _1_ RTR  --- 0 AODV 32 [0 0 0 0] ------- [1:255 -1:255 1 0] [0x8 1 [5 0] 0.000000] (ERROR)
r 1.003862008 _7_ RTR  --- 0 AODV 48 [0 ffffffff 5 800] ------- [5:255 -1:255 30 0] [0x2 1 1 [0 0] [5 4]] (REQUEST)
s 1.003862008 _7_ RTR  --- 0 AODV 44 [0 0 0 0] ------- [7:255 5:255 30 5] [0x4 2 [0 4] 5.000000] (REPLY)
D 1.003867003 _3_ IFQ  --- 0 ARP 28 [0 ffffffff 3 806] ------- [REQUEST 3/3 0/5]
D 1.003867007 _1_ IFQ  --- 0 ARP 28 [0 ffffffff 1 806] ------- [REQUEST 1/1 0/5]
D 1.003867007 _1_ IFQ  --- 0 ARP 28 [0 ffffffff 1 806] ------- [REQUEST 1/1 0/5]
D 1.003867007 _1_ IFQ  --- 0 ARP 28 [0 ffffffff 1 806] ------- [REQUEST 1/1 0/5]
D 1.003867007 _6_ IFQ  --- 0 ARP 28 [0 ffffffff 6 806] ------- [REQUEST 6/6 0/5]
D 1.003867007 _9_ IFQ  --- 0 ARP 28 [0 ffffffff 9 806] ------- [REQUEST 9/9 0/5]
D 1.003887007 _1_ IFQ  --- 0 ARP 28 [0 ffffffff 1 806] ------- [REQUEST 1/1 0/5]
s 1.004064316 _8_ RTR  --- 0 AODV 48 [0 ffffffff 3 800] ------- [8:255 -1:255 29 0] [0x2 2 1 [5 0] [3 4]] (REQUEST)
s 1.004175042 _9_ RTR  --- 0 AODV 48 [0 ffffffff 3 800] ------- [9:255 -1:255 29 0] [0x2 2 1 [5 0] [3 4]] (REQUEST)
D 1.004200042 _9_ IFQ  --- 0 AODV 48 [0 ffffffff 9 800] ------- [9:255 -1:255 30 0] [0x2 1 2 [2 0] [9 6]] (REQUEST)
r 1.004780007 _6_ RTR  --- 0 AODV 48 [0 ffffffff 9 800] ------- [9:255 -1:255 30 0] [0x2 1 1 [6 0] [9 4]] (REQUEST)
r 1.004780007 _0_ RTR  --- 0 AODV 48 [0 ffffffff 9 800] ------- [9:255 -1:255 30 0] [0x2 1 1 [6 0] [9 4]] (REQUEST)
r 1.004780007 _1_ RTR  --- 0 AODV 48 [0 ffffffff 9 800] ------- [9:255 -1:255 30 0] [0x2 1 1 [6 0] [9 4]] (REQUEST)
s 1.004780007 _6_ RTR  --- 0 AODV 44 [0 0 0 0] ------- [6:255 9:255 30 9] [0x4 1 [6 8] 10.000000] (REPLY)
s 1.004780007 _0_ RTR  --- 36 tcp 40 [0 0 0 0] ------- [0:4 9:4 30 9] [0 0] 0 0
s 1.004780007 _0_ RTR  --- 37 tcp 1040 [0 0 0 0] ------- [0:4 9:4 30 9] [1 0] 0 0
D 1.004780007 _0_ IFQ  ARP 36 tcp 40 [0 0 0 800] ------- [0:4 9:4 30 9] [0 0] 0 0
r 1.004780008 _2_ RTR  --- 0 AODV 48 [0 ffffffff 9 800] ------- [9:255 -1:255 30 0] [0x2 1 1 [6 0] [9 4]] (REQUEST)
r 1.004780010 _8_ RTR  --- 0 AODV 48 [0 ffffffff 9 800] ------- [9:255 -1:255 30 0] [0x2 1 1 [6 0] [9 4]] (REQUEST)
r 1.004780010 _5_ RTR  --- 0 AODV 48 [0 ffffffff 9 800] ------- [9:255 -1:255 30 0] [0x2 1 1 [6 0] [9 4]] (REQUEST)
r 1.004780010 _4_ RTR  --- 0 AODV 48 [0 ffffffff 9 800] ------- [9:255 -1:255 30 0] [0x2 1 1 [6 0] [9 4]] (REQUEST)
r 1.004780010 _3_ RTR  --- 0 AODV 48 [0 ffffffff 9 800] ------- [9:255 -1:255 30 0] [0x2 1 1 [6 0] [9 4]] (REQUEST)
r 1.004780010 _7_ RTR  --- 0 AODV 48 [0 ffffffff 9 800] ------- [9:255 -1:255 30 0] [0x2 1 1 [6 0] [9 4]] (REQUEST)
s 1.004780010 _3_ RTR  --- 38 tcp 40 [0 0 0 0] ------- [3:3 9:5 30 9] [0 0] 0 0
s 1.004780010 _3_ RTR  --- 39 tcp 1040 [0 0 0 0] ------- [3:3 9:5 30 9] [1 0] 0 0
D 1.004780010 _3_ IFQ  ARP 38 tcp 40 [0 0 3 800] ------- [3:3 9:5 30 9] [0 0] 0 0
D 1.004785007 _6_ IFQ  --- 0 ARP 28 [0 ffffffff 6 806] ------- [REQUEST 6/6 0/9]
D 1.004785007 _0_ IFQ  --- 0 ARP 28 [0 ffffffff 0 806] ------- [REQUEST 0/0 0/9]
D 1.004785007 _0_ IFQ  --- 0 ARP 28 [0 ffffffff 0 806] ------- [REQUEST 0/0 0/9]
D 1.004785010 _3_ IFQ  --- 0 ARP 28 [0 ffffffff 3 806] ------- [REQUEST 3/3 0/9]
D 1.004785010 _3_ IFQ  --- 0 ARP 28 [0 ffffffff 3 806] ------- [REQUEST 3/3 0/9]
s 1.005023194 _8_ RTR  --- 0 AODV 48 [0 ffffffff 1 800] ------- [8:255 -1:255 29 0] [0x2 2 1 [5 0] [1 4]] (REQUEST)
s 1.005055585 _4_ RTR  --- 0 AODV 48 [0 ffffffff 9 800] ------- [4:255 -1:255 29 0] [0x2 2 1 [6 0] [9 4]] (REQUEST)
D 1.005558013 _0_ IFQ  --- 0 ARP 28 [0 4 0 806] ------- [REPLY 0/0 4/4]
s 1.006300634 _6_ RTR  --- 0 AODV 48 [0 ffffffff 3 800] ------- [6:255 -1:255 29 0] [0x2 2 1 [5 0] [3 4]] (REQUEST)
D 1.006325634 _6_ IFQ  --- 0 ARP 28 [0 ffffffff 6 806] ------- [REQUEST 6/6 0/0]
r 1.006496013 _0_ RTR  --- 0 AODV 48 [0 ffffffff 6 800] ------- [6:255 -1:255 30 0] [0x2 1 1 [0 0] [6 4]] (REQUEST)
r 1.006496013 _1_ RTR  --- 0 AODV 48 [0 ffffffff 6 800] ------- [6:255 -1:255 30 0] [0x2 1 1 [0 0] [6 4]] (REQUEST)
r 1.006496013 _9_ RTR  --- 0 AODV 48 [0 ffffffff 6 800] ------- [6:255 -1:255 30 0] [0x2 1 1 [0 0] [6 4]] (REQUEST)
s 1.006496013 _0_ RTR  --- 0 AODV 44 [0 0 0 0] ------- [0:255 6:255 30 6] [0x4 1 [0 10] 10.000000] (REPLY)
s 1.006496013 _1_ RTR  --- 0 AODV 44 [0 0 0 0] ------- [1:255 6:255 30 6] [0x4 2 [0 4] 5.000000] (REPLY)
s 1.006496013 _9_ RTR  --- 10 tcp 40 [0 0 0 0] ------- [9:0 6:1 30 6] [0 0] 0 0
s 1.006496013 _9_ RTR  --- 11 tcp 1040 [0 0 0 0] ------- [9:0 6:1 30 6] [1 0] 0 0
D 1.006496013 _9_ IFQ  ARP 10 tcp 40 [0 0 9 800] ------- [9:0 6:1 30 6] [0 0] 0 0
s 1.006496013 _9_ RTR  --- 0 AODV 44 [0 0 0 0] ------- [9:255 6:255 30 6] [0x4 2 [0 4] 5.000000] (REPLY)
D 1.006496013 _9_ IFQ  ARP 11 tcp 1040 [0 0 9 800] ------- [9:0 6:1 30 6] [1 0] 0 0
r 1.006496015 _2_ RTR  --- 0 AODV 48 [0 ffffffff 6 800] ------- [6:255 -1:255 30 0] [0x2 1 1 [0 0] [6 4]] (REQUEST)
s 1.006496015 _2_ RTR  --- 0 AODV 44 [0 0 0 0] ------- [2:255 6:255 30 6] [0x4 2 [0 4] 5.000000] (REPLY)
r 1.006496017 _5_ RTR  --- 0 AODV 48 [0 ffffffff 6 800] ------- [6:255 -1:255 30 0] [0x2 1 1 [0 0] [6 4]] (REQUEST)
r 1.006496017 _4_ RTR  --- 0 AODV 48 [0 ffffffff 6 800] ------- [6:255 -1:255 30 0] [0x2 1 1 [0 0] [6 4]] (REQUEST)
r 1.006496017 _3_ RTR  --- 0 AODV 48 [0 ffffffff 6 800] ------- [6:255 -1:255 30 0] [0x2 1 1 [0 0] [6 4]] (REQUEST)
r 1.006496017 _7_ RTR  --- 0 AODV 48 [0 ffffffff 6 800] ------- [6:255 -1:255 30 0] [0x2 1 1 [0 0] [6 4]] (REQUEST)
r 1.006496017 _8_ RTR  --- 0 AODV 48 [0 ffffffff 6 800] ------- [6:255 -1:255 30 0] [0x2 1 1 [0 0] [6 4]] (REQUEST)
s 1.006496017 _4_ RTR  --- 0 AODV 44 [0 0 0 0] ------- [4:255 6:255 30 6] [0x4 2 [0 4] 5.000000] (REPLY)
s 1.006496017 _3_ RTR  --- 0 AODV 44 [0 0 0 0] ------- [3:255 6:255 30 6] [0x4 2 [0 4] 5.000000] (REPLY)
s 1.006496017 _7_ RTR  --- 0 AODV 44 [0 0 0 0] ------- [7:255 6:255 30 6] [0x4 2 [0 4] 5.000000] (REPLY)
s 1.006496017 _8_ RTR  --- 0 AODV 44 [0 0 0 0] ------- [8:255 6:255 30 6] [0x4 2 [0 4] 5.000000] (REPLY)
D 1.006501013 _0_ IFQ  --- 0 ARP 28 [0 ffffffff 0 806] ------- [REQUEST 0/0 0/6]
D 1.006501013 _1_ IFQ  --- 0 ARP 28 [0 ffffffff 1 806] ------- [REQUEST 1/1 0/6]
D 1.006501013 _9_ IFQ  --- 0 ARP 28 [0 ffffffff 9 806] ------- [REQUEST 9/9 0/6]
D 1.006501013 _9_ IFQ  --- 0 ARP 28 [0 ffffffff 9 806] ------- [REQUEST 9/9 0/6]
D 1.006501017 _3_ IFQ  --- 0 ARP 28 [0 ffffffff 3 806] ------- [REQUEST 3/3 0/6]
s 1.006642153 _7_ RTR  --- 0 AODV 48 [0 ffffffff 9 800] ------- [7:255 -1:255 29 0] [0x2 2 1 [6 0] [9 4]] (REQUEST)
D 1.007294020 _0_ IFQ  --- 0 ARP 28 [0 7 0 806] ------- [REPLY 0/0 7/7]
s 1.007398250 _2_ RTR  --- 0 AODV 48 [0 ffffffff 9 800] ------- [2:255 -1:255 29 0] [0x2 2 1 [6 0] [9 4]] (REQUEST)
D 1.007423250 _2_ IFQ  --- 0 ARP 28 [0 ffffffff 2 806] ------- [REQUEST 2/2 0/6]
s 1.007741493 _7_ RTR  --- 0 AODV 48 [0 ffffffff 1 800] ------- [7:255 -1:255 29 0] [0x2 2 1 [5 0] [1 4]] (REQUEST)
s 1.008053180 _3_ RTR  --- 0 AODV 48 [0 ffffffff 9 800] ------- [3:255 -1:255 29 0] [0x2 2 1 [6 0] [9 4]] (REQUEST)
D 1.008078180 _3_ IFQ  --- 0 ARP 28 [0 ffffffff 3 806] ------- [REQUEST 3/3 0/5]
s 1.008590322 _3_ RTR  --- 0 AODV 48 [0 ffffffff 1 800] ------- [3:255 -1:255 29 0] [0x2 2 1 [5 0] [1 4]] (REQUEST)
s 1.008894281 _1_ RTR  --- 0 AODV 48 [0 ffffffff 3 800] ------- [1:255 -1:255 29 0] [0x2 2 1 [5 0] [3 4]] (REQUEST)
D 1.008919281 _1_ IFQ  --- 0 ARP 28 [0 ffffffff 1 806] ------- [REQUEST 1/1 0/3]
s 1.009036883 _5_ RTR  --- 0 AODV 48 [0 ffffffff 9 800] ------- [5:255 -1:255 29 0] [0x2 2 1 [6 0] [9 4]] (REQUEST)
s 1.009366252 _0_ RTR  --- 0 AODV 48 [0 ffffffff 1 800] ------- [0:255 -1:255 29 0] [0x2 2 1 [5 0] [1 4]] (REQUEST)
D 1.009391252 _0_ IFQ  --- 0 ARP 28 [0 ffffffff 0 806] ------- [REQUEST 0/0 0/5]
s 1.009479067 _2_ RTR  --- 0 AODV 48 [0 ffffffff 1 800] ------- [2:255 -1:255 29 0] [0x2 2 1 [5 0] [1 4]] (REQUEST)
D 1.009504067 _2_ IFQ  --- 0 ARP 28 [0 ffffffff 2 806] ------- [REQUEST 2/2 0/5]
r 1.009534025 _1_ RTR  --- 0 AODV 48 [0 ffffffff 2 800] ------- [2:255 -1:255 30 0] [0x2 1 1 [4 0] [2 4]] (REQUEST)
r 1.009534025 _0_ RTR  --- 0 AODV 48 [0 ffffffff 2 800] ------- [2:255 -1:255 30 0] [0x2 1 1 [4 0] [2 4]] (REQUEST)
r 1.009534025 _6_ RTR  --- 0 AODV 48 [0 ffffffff 2 800] ------- [2:255 -1:255 30 0] [0x2 1 1 [4 0] [2 4]] (REQUEST)
r 1.009534025 _9_ RTR  --- 0 AODV 48 [0 ffffffff 2 800] ------- [2:255 -1:255 30 0] [0x2 1 1 [4 0] [2 4]] (REQUEST)
s 1.009534025 _9_ RTR  --- 12 tcp 40 [0 0 0 0] ------- [9:1 2:0 30 2] [0 0] 0 0
s 1.009534025 _9_ RTR  --- 13 tcp 1040 [0 0 0 0] ------- [9:1 2:0 30 2] [1 0] 0 0
D 1.009534025 _9_ IFQ  ARP 12 tcp 40 [0 0 9 800] ------- [9:1 2:0 30 2] [0 0] 0 0
r 1.009534027 _7_ RTR  --- 0 AODV 48 [0 ffffffff 2 800] ------- [2:255 -1:255 30 0] [0x2 1 1 [4 0] [2 4]] (REQUEST)
r 1.009534027 _3_ RTR  --- 0 AODV 48 [0 ffffffff 2 800] ------- [2:255 -1:255 30 0] [0x2 1 1 [4 0] [2 4]] (REQUEST)
r 1.009534027 _4_ RTR  --- 0 AODV 48 [0 ffffffff 2 800] ------- [2:255 -1:255 30 0] [0x2 1 1 [4 0] [2 4]] (REQUEST)
r 1.009534027 _5_ RTR  --- 0 AODV 48 [0 ffffffff 2 800] ------- [2:255 -1:255 30 0] [0x2 1 1 [4 0] [2 4]] (REQUEST)
r 1.009534027 _8_ RTR  --- 0 AODV 48 [0 ffffffff 2 800] ------- [2:255 -1:255 30 0] [0x2 1 1 [4 0] [2 4]] (REQUEST)
s 1.009534027 _4_ RTR  --- 0 AODV 44 [0 0 0 0] ------- [4:255 2:255 30 2] [0x4 1 [4 4] 10.000000] (REPLY)
D 1.009539025 _9_ IFQ  --- 0 ARP 28 [0 ffffffff 9 806] ------- [REQUEST 9/9 0/2]
D 1.009539025 _9_ IFQ  --- 0 ARP 28 [0 ffffffff 9 806] ------- [REQUEST 9/9 0/2]
s 1.009630247 _7_ RTR  --- 0 AODV 48 [0 ffffffff 3 800] ------- [7:255 -1:255 29 0] [0x2 2 1 [5 0] [3 4]] (REQUEST)
s 1.010017458 _4_ RTR  --- 0 AODV 48 [0 ffffffff 1 800] ------- [4:255 -1:255 29 0] [0x2 2 1 [5 0] [1 4]] (REQUEST)
s 1.010035359 _6_ RTR  --- 0 AODV 48 [0 ffffffff 2 800] ------- [6:255 -1:255 29 0] [0x2 2 1 [4 0] [2 4]] (REQUEST)
s 1.010228226 _0_ RTR  --- 0 AODV 48 [0 ffffffff 9 800] ------- [0:255 -1:255 29 0] [0x2 2 1 [6 0] [9 4]] (REQUEST)
D 1.010253226 _0_ IFQ  --- 0 ARP 28 [0 ffffffff 0 806] ------- [REQUEST 0/0 0/1]
s 1.010328407 _8_ RTR  --- 0 AODV 48 [0 ffffffff 9 800] ------- [8:255 -1:255 29 0] [0x2 2 1 [6 0] [9 4]] (REQUEST)
D 1.010353407 _8_ IFQ  --- 0 ARP 28 [0 ffffffff 8 806] ------- [REQUEST 8/8 0/6]
s 1.010416028 _8_ RTR  --- 0 AODV 48 [0 ffffffff 2 800] ------- [8:255 -1:255 29 0] [0x2 2 1 [4 0] [2 4]] (REQUEST)
D 1.010441028 _8_ IFQ  --- 0 ARP 28 [0 ffffffff 8 806] ------- [REQUEST 8/8 0/5]
s 1.010447594 _1_ RTR  --- 0 AODV 48 [0 ffffffff 2 800] ------- [1:255 -1:255 29 0] [0x2 2 1 [4 0] [2 4]] (REQUEST)
r 1.010452025 _1_ RTR  --- 0 AODV 48 [0 ffffffff 0 800] ------- [0:255 -1:255 30 0] [0x2 1 2 [9 0] [0 6]] (REQUEST)
r 1.010452025 _6_ RTR  --- 0 AODV 48 [0 ffffffff 0 800] ------- [0:255 -1:255 30 0] [0x2 1 2 [9 0] [0 6]] (REQUEST)
r 1.010452025 _9_ RTR  --- 0 AODV 48 [0 ffffffff 0 800] ------- [0:255 -1:255 30 0] [0x2 1 2 [9 0] [0 6]] (REQUEST)
s 1.010452025 _1_ RTR  --- 0 AODV 44 [0 0 0 0] ------- [1:255 0:255 30 0] [0x4 2 [9 4] 5.000000] (REPLY)
D 1.010452025 _1_ IFQ  ARP 0 AODV 44 [0 0 1 800] ------- [1:255 0:255 30 0] [0x4 1 [1 8] 10.000000] (REPLY)
s 1.010452025 _6_ RTR  --- 0 AODV 44 [0 0 0 0] ------- [6:255 0:255 30 0] [0x4 2 [9 4] 5.000000] (REPLY)
D 1.010452025 _6_ IFQ  ARP 0 AODV 44 [0 0 6 800] ------- [6:255 0:255 30 0] [0x4 2 [1 4] 5.000000] (REPLY)
D 1.010452025 _6_ IFQ  ARP 0 AODV 44 [0 0 6 800] ------- [6:255 0:255 30 0] [0x4 2 [9 4] 5.000000] (REPLY)
s 1.010452025 _9_ RTR  --- 0 AODV 44 [0 0 0 0] ------- [9:255 0:255 30 0] [0x4 1 [9 12] 10.000000] (REPLY)